 TITLE = "Projeto1" 
 VARIABLES = "X_ksi" "X_eta" "Y_ksi" "Y_eta" "J" 
 ZONE I =           10  J =          13  DATAPACKING = POINT
   10.3063182700000      -0.374944990000000        4.23323481000000     
  0.927047070000000       8.975313307069373E-002
  0.000000000000000E+000 -0.323744469999999       0.000000000000000E+000
  0.816596790000002                     Infinity
  0.000000000000000E+000 -0.280807570000000       0.000000000000000E+000
  0.726543760000002                     Infinity
  0.000000000000000E+000 -0.244811559999999       0.000000000000000E+000
  0.653124219999999                     Infinity
  0.000000000000000E+000 -0.214640830000000       0.000000000000000E+000
  0.593268909999999                     Infinity
  0.000000000000000E+000 -0.189355750000004       0.000000000000000E+000
  0.544475090000002                     Infinity
  0.000000000000000E+000 -0.168166249999999       0.000000000000000E+000
  0.504701749999999                     Infinity
  0.000000000000000E+000 -0.150409140000001       0.000000000000000E+000
  0.472284219999999                     Infinity
  0.000000000000000E+000 -0.135528430000001       0.000000000000000E+000
  0.445864730000000                     Infinity
   2.08482898000000      -0.123058350000001       0.856325910000001     
  0.424335730000001        1.01005460808997     
   10.3575187900000       0.000000000000000E+000   4.12278453000000     
  0.000000000000000E+000                Infinity
   9.42030201500000      -0.353597564999999        3.74972615000000     
  0.909170705000001       0.101106543781216     
   7.71547786000000      -0.306598735000001        3.07112162000000     
  0.808825095000000       0.139235544459187     
   6.31918464000000      -0.267179024999999        2.51532644500000     
  0.727001079999999       0.189893974640938     
   5.17559274000000      -0.234124115000000        2.06011814500000     
  0.660283249999999       0.256431261908880     
   4.23896835500000      -0.206410430000002        1.68729292500000     
  0.605886160000001       0.342864143105613     
   3.47185384500000      -0.183176724999999        1.38194119000000     
  0.561537899999999       0.453984787757888     
   2.84357027500000      -0.163699535000003        1.13185150000000     
  0.525385244999999       0.595502728907640     
   2.32899097500000      -0.147371900000000       0.927022255000001     
  0.495916400000000       0.774232399259325     
   2.09729906000000       0.000000000000000E+000  0.834796910000001     
  0.000000000000000E+000                Infinity
   10.4183516100000       0.000000000000000E+000   3.98712521000000     
  0.000000000000000E+000                Infinity
   9.47624880500000      -0.416840455000000        3.62657739500000     
   1.11583850000000       8.274263761763065E-002
   7.76242994500000      -0.361084470000000        2.97068828000000     
  0.992510209999999       0.113934660399431     
   6.35857589000000      -0.314275105000000        2.43342202500000     
  0.891913270000000       0.155374508899584     
   5.20863343000000      -0.274988345000001        1.99332779000000     
  0.809861580000000       0.209801330319617     
   4.26667845500000      -0.242021970000000        1.63283115500000     
  0.742940039999999       0.280499615549666     
   3.49509143500000      -0.214362910000002        1.33753571000000     
  0.688362335000001       0.371387235738755     
   2.86305619000000      -0.191158885000000        1.09564851000000     
  0.643855010000000       0.487130969335089     
   2.34533005000000      -0.171693869999999       0.897509265000001     
  0.607562905000001       0.633299237110806     
   2.11220265000000       0.000000000000000E+000  0.808289130000000     
  0.000000000000000E+000                Infinity
   10.4902930600000       0.000000000000000E+000   3.82040340000000     
  0.000000000000000E+000                Infinity
   9.54244513500000      -0.486329405000000        3.47520729500000     
   1.37073424500000       6.770365271644924E-002
   7.81804321000000      -0.420479869999999        2.84719639000000     
   1.21906155500000       9.321519517402510E-002
   6.40528076500000      -0.365133080000000        2.33267781500000     
   1.09529651000000       0.127106480041534     
   5.24784587500000      -0.318630775000001        1.91114491500000     
  0.994308050000001       0.171617105545877     
   4.29959379000000      -0.279570300000000        1.56579368000000     
  0.911908585000001       0.229432211136618     
   3.52271693000000      -0.246767495000000        1.28285616000000     
  0.844680289999999       0.303754088357753     
   2.88623931500000      -0.219224335000000        1.05105207000000     
  0.789833450000001       0.398396129406140     
   2.36478300500000      -0.196100885000000       0.861139400000000     
  0.745090860000000       0.517907050236101     
   2.12995309000000       0.000000000000000E+000  0.775615409999999     
  0.000000000000000E+000                Infinity
   10.5749718100000       0.000000000000000E+000   3.61539118000000     
  0.000000000000000E+000                Infinity
   9.62040844000000      -0.559380175000000        3.28903769000000     
   1.68550337000000       5.538615599737821E-002
   7.88362627000000      -0.481963435000001        2.69525054500000     
   1.49884904000000       7.624637348238800E-002
   6.46042498500000      -0.416805224999999        2.20866852000000     
   1.34646748000000       0.103957271504519     
   5.29419621000000      -0.361989140000000        1.80993986500000     
   1.22206973500000       0.140349783260958     
   4.33854173500000      -0.315890374999999        1.48320339500000     
   1.12052085500000       0.187618803591734     
   3.55543740000000      -0.277134090000001        1.21546057500000     
   1.03762795000000       0.248381374271957     
   2.91372280000000      -0.244558990000002       0.996059080000001     
  0.969967165000000       0.325752991032563     
   2.38786346000000      -0.217185570000002       0.816269485000000     
  0.914742564999999       0.423448494308601     
   2.15102257000000       0.000000000000000E+000  0.735294750000000     
  0.000000000000000E+000                Infinity
   10.6741581300000       0.000000000000000E+000   3.36314570000000     
  0.000000000000000E+000                Infinity
   9.71179441000000      -0.630685805000000        3.05992411500000     
   2.07456817500000       4.529471623590642E-002
   7.96061816000000      -0.540178129999999        2.50816050000000     
   1.84467799500000       6.234557548432702E-002
   6.52525506000000      -0.463876025000001        2.05589851000000     
   1.65689279500000       8.499549010009125E-002
   5.34876072500000      -0.399585945000000        1.68519829000000     
   1.50350496500000       0.114741140126434     
   4.38444884000000      -0.345442680000001        1.38135189500000     
   1.37821768500000       0.153376518935379     
   3.59404831500000      -0.299863460000001        1.13230247000000     
   1.27588656000000       0.203040157741972     
   2.94618783500000      -0.261507634999997       0.928166685000000     
   1.19230858500000       0.266276998797321     
   2.41515340000000      -0.229241389999999       0.760843155000000     
   1.12404981500000       0.346120228906888     
   2.17594704000000       0.000000000000000E+000  0.685472120000000     
  0.000000000000000E+000                Infinity
   10.7895505400000       0.000000000000000E+000   3.05253324000000     
  0.000000000000000E+000                Infinity
   9.81820548000000      -0.691121915000000        2.77771854000000     
   2.55553229500000       3.702266217973126E-002
   8.05043605000000      -0.586455275000000        2.27757516500000     
   2.27202083500000       5.095163799357574E-002
   6.60101717000000      -0.498028425000001        1.86749549000000     
   2.04027561000000       6.945428297777319E-002
   5.41262955500000      -0.423374814999999        1.53126475500000     
   1.85084820500000       9.375362156851655E-002
   4.43826422000000      -0.360388855000000        1.25558499000000     
   1.69601443000000       0.125315497457891     
   3.63937244500000      -0.307276929999997        1.02955147500000     
   1.56945959500000       0.165886848624280     
   2.98434487000000      -0.262514149999998       0.844222335000000     
   1.46602128500000       0.217545789766654     
   2.44726413500000      -0.224806239999999       0.692265535000000     
   1.38147907000000       0.282767861301484     
   2.20529143000000       0.000000000000000E+000  0.623804390000000     
  0.000000000000000E+000                Infinity
   10.9217414100000       0.000000000000000E+000   2.66947714000000     
  0.000000000000000E+000                Infinity
   9.94025269000000      -0.726516560000000        2.42957837500000     
   3.14948145500000       3.023726843303581E-002
   8.15371165000000      -0.608744965000001        1.99290381500000     
   2.79913574500000       4.160336732175039E-002
   6.68833552000000      -0.508926290000000        1.63472588000000     
   2.51251948500000       5.670050155896898E-002
   5.48640029500000      -0.424404164999999        1.34093711000000     
   2.27804250500000       7.652659635982367E-002
   4.50054672500000      -0.352896549999997        1.09996328500000     
   2.08622194500000       0.102277593227592     
   3.69192302000000      -0.292447679999999       0.902309325000000     
   1.92929920000000       0.135378406515096     
   3.02865852500000      -0.241385090000001       0.740186159999999     
   1.80092643000000       0.177523372174389     
   2.48461145500000      -0.198281260000002       0.607204540000001     
   1.69591017500000       0.230729733633894     
   2.23944733000000       0.000000000000000E+000  0.547279320000001     
  0.000000000000000E+000                Infinity
   11.0671739100000       0.000000000000000E+000   2.19605365000000     
  0.000000000000000E+000                Infinity
   10.0747887600000      -0.715875300000000        1.99913303500000     
   3.88130529000000       2.467036636265367E-002
   8.26802632000000      -0.591703610000001        1.64061319500000     
   3.44754009500000       3.392693137033237E-002
   6.78535797000000      -0.485834640000000        1.34640225000000     
   3.09231781500000       4.621795646593473E-002
   5.56865929500000      -0.395698625000000        1.10496721500000     
   2.80141709000000       6.235435843767468E-002
   4.57022070500000      -0.319058699999999       0.906841685000000     
   2.56319080500000       8.330776189780968E-002
   3.75088390500000      -0.253974140000000       0.744255960000000     
   2.36810037000000       0.110235457826274     
   3.07851129000000      -0.198766055000000       0.610833310000000     
   2.20833423500000       0.144512955750539     
   2.52672945500000      -0.151985894999999       0.501340600000000     
   2.07749537500000       0.187777013705472     
   2.27801441000000       0.000000000000000E+000  0.451987030000000     
  0.000000000000000E+000                Infinity
   11.2125811500000       0.000000000000000E+000   1.61013447000000     
  0.000000000000000E+000                Infinity
   10.2098442500000      -0.626978265000000        1.46614184500000     
   4.77976326500000       2.011268026230804E-002
   8.38375231000000      -0.513679105000000        1.20391634000000     
   4.24284161000000       2.763243132958130E-002
   6.88434050500000      -0.415758365000000       0.988602875000000     
   3.80260115500000       3.760894219329387E-002
   5.65317623500000      -0.331355950000001       0.811810100000000     
   3.44163064000000       5.069671828049032E-002
   4.64227121000000      -0.258785985000003       0.666646565000000     
   3.14565357000000       6.767962402316180E-002
   3.81221566500000      -0.196532595000001       0.547452755000000     
   2.90296429500000       8.949091799209508E-002
   3.13064677000000      -0.143241969999998       0.449581165000000     
   2.70396545000000       0.117239347352161     
   2.57099062500000      -9.771227499999924E-002  0.369215625000000     
   2.54078847500000       0.152243608393030     
   2.31864535000000       0.000000000000000E+000  0.332979210000000     
  0.000000000000000E+000                Infinity
   11.3286043500000       0.000000000000000E+000  0.886381820000000     
  0.000000000000000E+000                Infinity
   10.3188031400000      -0.407664940000000       0.807375465000000     
   5.87640631500000       1.640241861646531E-002
   8.47924622000000      -0.338197565000000       0.663451085000000     
   5.21533170500000       2.249898008275964E-002
   6.96768112500000      -0.275125379999999       0.545191280000000     
   4.67248997500000       3.057504053628627E-002
   5.72563167500000      -0.218414680000000       0.448019630000000     
   4.22672883000000       4.115472497779474E-002
   4.70504406000000      -0.167843285000000       0.368175340000000     
   3.86067987500000       5.486527519178569E-002
   3.86642792000000      -0.123065159999999       0.302567840000000     
   3.56008226500000       7.245307327299445E-002
   3.17733161000000      -8.365888500000196E-002  0.248657490000000     
   3.31322712000000       9.480448958873547E-002
   2.61108904000000      -4.916383999999852E-002  0.204357575000000     
   3.11050110000000       0.122973363095056     
   2.35567419000000       0.000000000000000E+000  0.184374930000000     
  0.000000000000000E+000                Infinity
   11.3638370000000       0.000000000000000E+000  0.000000000000000E+000
  0.000000000000000E+000                Infinity
   10.3549395500000      -0.128647420000000       0.000000000000000E+000
   6.47833264000000       1.490696350786091E-002
   8.51629187000000      -0.110127335000000       0.000000000000000E+000
   5.74996353000000       2.042134642663898E-002
   7.00412339000000      -9.160176999999869E-002  0.000000000000000E+000
   5.15143047000000       2.771522248288319E-002
   5.76045833000000      -7.368506999999980E-002  0.000000000000000E+000
   4.65958097000000       3.725598908718745E-002
   4.73762073000000      -5.677511499999710E-002  0.000000000000000E+000
   4.25539121000000       4.960211757920526E-002
   3.89640006500000      -4.110839999999882E-002  0.000000000000000E+000
   3.92323029000000       6.541730620686798E-002
   3.20454809000000      -2.680297000000209E-002  0.000000000000000E+000
   3.65025553000000       8.548894135908934E-002
   2.63554262500000      -1.389191999999895E-002  0.000000000000000E+000
   3.42591531000000       0.110752447565096     
   2.37875926000000       0.000000000000000E+000  0.000000000000000E+000
  0.000000000000000E+000                Infinity
   11.3638370000000       0.000000000000000E+000 -0.886381820000000     
   7.36471446000000       1.194865690684661E-002
  0.000000000000000E+000  0.000000000000000E+000  0.000000000000000E+000
   6.47833264000000                     Infinity
  0.000000000000000E+000  0.000000000000000E+000  0.000000000000000E+000
   5.74996353000000                     Infinity
  0.000000000000000E+000  0.000000000000000E+000  0.000000000000000E+000
   5.15143047000000                     Infinity
  0.000000000000000E+000  0.000000000000000E+000  0.000000000000000E+000
   4.65958097000000                     Infinity
  0.000000000000000E+000  0.000000000000000E+000  0.000000000000000E+000
   4.25539121000000                     Infinity
  0.000000000000000E+000  0.000000000000000E+000  0.000000000000000E+000
   3.92323029000000                     Infinity
  0.000000000000000E+000  0.000000000000000E+000  0.000000000000000E+000
   3.65025553000000                     Infinity
  0.000000000000000E+000  0.000000000000000E+000  0.000000000000000E+000
   3.42591531000000                     Infinity
   2.37875926000000       0.000000000000000E+000 -0.184374930000000     
   3.24154038000000       0.129687486173312     
