 TITLE = "Projeto1" 
 VARIABLES = "X" "Y" "u" "v" "q_vel_out" "rho" "p" "e" "mach" 
 ZONE I =           24  J =          13  DATAPACKING = POINT
    8.4500000000E-06   -3.5279003140E+01    6.9524413294E+01    0.0000000000E+00    6.9524413294E+01    1.1734947310E+00    9.8494585698E+04    2.4907259215E+05    2.0281856605E-01
    1.0306326720E+01   -3.1045768330E+01    6.9524414228E+01    2.5360241249E+01    7.4005310687E+01    1.2053147414E+00    1.0269218607E+05    2.6003109062E+05    2.1427939077E-01
    1.8746475060E+01   -2.7579047530E+01    9.2348893640E+01    3.6066634068E+01    9.9141919739E+01    1.1661680933E+00    9.8071292076E+04    2.5090943340E+05    2.8893685091E-01
    2.5658349530E+01   -2.4740052520E+01    1.0531574632E+02    4.1754969944E+01    1.1329114677E+02    1.1520985389E+00    9.6474372488E+04    2.4857945674E+05    3.3088020548E-01
    3.1318677600E+01   -2.2415119790E+01    1.1931451063E+02    4.7399614317E+01    1.2838487404E+02    1.1328754196E+00    9.4260489872E+04    2.4498763386E+05    3.7616299723E-01
    3.5954079200E+01   -2.0511167100E+01    1.3293708381E+02    5.2819255317E+01    1.4304594362E+02    1.1136811889E+00    9.2064444472E+04    2.4155526249E+05    4.2048063817E-01
    3.9750139730E+01   -1.8951966780E+01    1.4735773505E+02    5.8477822180E+01    1.5853692872E+02    1.0910735850E+00    8.9481909333E+04    2.3741627204E+05    4.6787067151E-01
    4.2858840280E+01   -1.7675093850E+01    1.6278772486E+02    6.4342232881E+01    1.7504218434E+02    1.0653287809E+00    8.6567044369E+04    2.3273832336E+05    5.1897237577E-01
    4.5404642460E+01   -1.6629426760E+01    1.8078850177E+02    7.0874684294E+01    1.9418471424E+02    1.0328148308E+00    8.2917701044E+04    2.2676679018E+05    5.7921343786E-01
    4.7489471440E+01   -1.5773100850E+01    2.0506615816E+02    7.6035686201E+01    2.1870883567E+02    9.8717895255E-01    7.7884245660E+04    2.1832075341E+05    6.5807508021E-01
    4.9607350680E+01   -1.5003262190E+01    2.3682618615E+02    7.4191945015E+01    2.4817551682E+02    9.2579110932E-01    7.1211870261E+04    2.0653991610E+05    7.5626712860E-01
    5.1781269800E+01   -1.4409848660E+01    2.6978125752E+02    6.3640718917E+01    2.7718598091E+02    8.5914338933E-01    6.4179686676E+04    1.9345409835E+05    8.5711929871E-01
    5.3996560260E+01   -1.3996868810E+01    3.0047644665E+02    4.7451245616E+01    3.0420012443E+02    7.9280496409E-01    5.7396635116E+04    1.8017376798E+05    9.5551021351E-01
    5.6238272770E+01   -1.3767109600E+01    3.2781318986E+02    2.5908467629E+01    3.2883542410E+02    7.2999595210E-01    5.1175651011E+04    1.6740735736E+05    1.0496466312E+00
    5.8491279600E+01   -1.3722117420E+01    3.4190645508E+02    4.9898455635E+00    3.4194286450E+02    6.9040741834E-01    4.7410302797E+04    1.5888867396E+05    1.1028231847E+00
    6.0744619520E+01   -1.3769711210E+01    3.3965925540E+02   -5.2572015981E+00    3.3969993811E+02    6.9357929203E-01    4.7725066016E+04    1.5933081966E+05    1.0944759934E+00
    6.3553982470E+01   -1.3829049520E+01    3.3639252807E+02   -6.8643034941E+00    3.3646255602E+02    7.0371066062E-01    4.8694616733E+04    1.6156904637E+05    1.0810090036E+00
    6.7056569970E+01   -1.3903029860E+01    3.4114806535E+02   -7.2079415914E+00    3.4122420330E+02    6.9513528989E-01    4.7855586061E+04    1.6010764135E+05    1.0991175930E+00
    7.1423438710E+01   -1.3995265220E+01    3.4961578442E+02   -7.3822690061E+00    3.4969371543E+02    6.7466464312E-01    4.5890329063E+04    1.5597673991E+05    1.1332016522E+00
    7.6867854440E+01   -1.4110260120E+01    3.5904552789E+02   -7.5401177956E+00    3.5912469209E+02    6.5231414717E-01    4.3774997317E+04    1.5150214866E+05    1.1716464567E+00
    8.3655707370E+01   -1.4253630600E+01    3.6734966598E+02   -7.6753824513E+00    3.6742984172E+02    6.3004843025E-01    4.1699554080E+04    1.4677863126E+05    1.2070678129E+00
    9.2118497430E+01   -1.4432378480E+01    3.7537245035E+02   -7.7996309259E+00    3.7545347345E+02    6.1136524776E-01    3.9979763583E+04    1.4304005502E+05    1.2408588198E+00
    1.0266952384E+02   -1.4655233290E+01    3.7939517799E+02   -7.8308496686E+00    3.7947598512E+02    5.9504679661E-01    3.8492605727E+04    1.3907548565E+05    1.2609770556E+00
    1.1582405090E+02   -1.4933078770E+01    3.7939493383E+02   -7.8308416013E+00    3.7947574085E+02    5.9504707599E-01    3.8492630104E+04    1.3907551155E+05    1.2609761407E+00
   -3.7493654000E-01   -3.4351956070E+01    6.9524414228E+01    0.0000000000E+00    6.9524414228E+01    1.1734947304E+00    9.8494585622E+04    2.4907259204E+05    2.0281856880E-01
    9.9825822500E+00   -3.0229171540E+01    6.9524415159E+01    2.5360241581E+01    7.4005311676E+01    1.2053147413E+00    1.0269218607E+05    2.6003109072E+05    2.1427939362E-01
    1.8465667490E+01   -2.6852503770E+01    9.2348894944E+01    3.6066634563E+01    9.9141921133E+01    1.1661680928E+00    9.8071292063E+04    2.5090943353E+05    2.8893685493E-01
    2.5413537970E+01   -2.4086928300E+01    1.0531574795E+02    4.1754970575E+01    1.1329114853E+02    1.1520985382E+00    9.6474372475E+04    2.4857945693E+05    3.3088021053E-01
    3.1104036770E+01   -2.1821850880E+01    1.1931451260E+02    4.7399615088E+01    1.2838487617E+02    1.1328754187E+00    9.4260489866E+04    2.4498763414E+05    3.7616300331E-01
    3.5764723450E+01   -1.9966692010E+01    1.3293708605E+02    5.2819256195E+01    1.4304594602E+02    1.1136811877E+00    9.2064444458E+04    2.4155526282E+05    4.2048064506E-01
    3.9581973480E+01   -1.8447265030E+01    1.4735773764E+02    5.8477823212E+01    1.5853693150E+02    1.0910735838E+00    8.9481909331E+04    2.3741627250E+05    4.6787067946E-01
    4.2708431140E+01   -1.7202809630E+01    1.6278772751E+02    6.4342233939E+01    1.7504218719E+02    1.0653287793E+00    8.6567044343E+04    2.3273832380E+05    5.1897238391E-01
    4.5269114030E+01   -1.6183562030E+01    1.8078850483E+02    7.0874685541E+01    1.9418471755E+02    1.0328148291E+00    8.2917701023E+04    2.2676679076E+05    5.7921344733E-01
    4.7366413090E+01   -1.5348765120E+01    2.0506616118E+02    7.6035687400E+01    2.1870883891E+02    9.8717895003E-01    7.7884245555E+04    2.1832075379E+05    6.5807508959E-01
    4.9504999150E+01   -1.4598047580E+01    2.3682618990E+02    7.4191946282E+01    2.4817552078E+02    9.2579110629E-01    7.1211870107E+04    2.0653991653E+05    7.5626714024E-01
    5.1698067720E+01   -1.4018847730E+01    2.6978126132E+02    6.3640719936E+01    2.7718598484E+02    8.5914338507E-01    6.4179686402E+04    1.9345409844E+05    8.5711931055E-01
    5.3931360230E+01   -1.3615074210E+01    3.0047645158E+02    4.7451246497E+01    3.0420012943E+02    7.9280495905E-01    5.7396634773E+04    1.8017376809E+05    9.5551022907E-01
    5.6190344140E+01   -1.3389449650E+01    3.2781319523E+02    2.5908468161E+01    3.2883542949E+02    7.2999594472E-01    5.1175650453E+04    1.6740735686E+05    1.0496466488E+00
    5.8460312160E+01   -1.3343492330E+01    3.4190646346E+02    4.9898456815E+00    3.4194287289E+02    6.9040740683E-01    4.7410301861E+04    1.5888867293E+05    1.1028232135E+00
    6.0717878330E+01   -1.3389802890E+01    3.3965926570E+02   -5.2572019976E+00    3.3969994841E+02    6.9357927474E-01    4.7725064540E+04    1.5933081740E+05    1.0944760298E+00
    6.3531877740E+01   -1.3447528720E+01    3.3639254290E+02   -6.8643040799E+00    3.3646257086E+02    7.0371063866E-01    4.8694614810E+04    1.6156904383E+05    1.0810090558E+00
    6.7039463590E+01   -1.3519483110E+01    3.4114808407E+02   -7.2079423793E+00    3.4122422203E+02    6.9513525897E-01    4.7855583309E+04    1.6010763711E+05    1.0991176605E+00
    7.1411597120E+01   -1.3609173330E+01    3.4961581611E+02   -7.3822701287E+00    3.4969374714E+02    6.7466459519E-01    4.5890324747E+04    1.5597673367E+05    1.1332017680E+00
    7.6861381490E+01   -1.3720971250E+01    3.5904557611E+02   -7.5401197374E+00    3.5912474034E+02    6.5231406666E-01    4.3774990063E+04    1.5150213663E+05    1.1716466389E+00
    8.3654450210E+01   -1.3860326380E+01    3.6734975578E+02   -7.6753856976E+00    3.6742993157E+02    6.3004829745E-01    4.1699542170E+04    1.4677861332E+05    1.2070681533E+00
    9.2121916200E+01   -1.4034031630E+01    3.7537258813E+02   -7.7996367447E+00    3.7545361132E+02    6.1136503755E-01    3.9979744922E+04    1.4304002519E+05    1.2408593517E+00
    1.0267651289E+02   -1.4250554360E+01    3.7939542175E+02   -7.8308577229E+00    3.7947622900E+02    5.9504651768E-01    3.8492581389E+04    1.3907545979E+05    1.2609779691E+00
    1.1583269561E+02   -1.4520449310E+01    3.7939517799E+02   -7.8308496686E+00    3.7947598512E+02    5.9504679661E-01    3.8492605727E+04    1.3907548565E+05    1.2609770556E+00
   -8.1922002000E-01   -3.3214552130E+01    7.0875976390E+01    0.0000000000E+00    7.0875976390E+01    1.1725474228E+00    9.8383289471E+04    2.4890331340E+05    2.0679478174E-01
    9.5991315900E+00   -2.9227426920E+01    7.0875977184E+01    2.4394534338E+01    7.4956637114E+01    1.1992520417E+00    1.0193395168E+05    2.5820387647E+05    2.1729107021E-01
    1.8133277590E+01   -2.5961397340E+01    9.2376546279E+01    3.4186367892E+01    9.8499411430E+01    1.1655656576E+00    9.7982062412E+04    2.5060939316E+05    2.8712082996E-01
    2.5123991480E+01   -2.3286050360E+01    1.0557554515E+02    4.0075823587E+01    1.1292593754E+02    1.1517361524E+00    9.6416409735E+04    2.4838464801E+05    3.2986080075E-01
    3.0850429370E+01   -2.1094553290E+01    1.1974890209E+02    4.5691394476E+01    1.2816982126E+02    1.1325515094E+00    9.4209348010E+04    2.4482586673E+05    3.7558111190E-01
    3.5541258340E+01   -1.9299394780E+01    1.3352304314E+02    5.1020010584E+01    1.4293860406E+02    1.1132608095E+00    9.2004166977E+04    2.4138318068E+05    4.2022339801E-01
    3.9383786280E+01   -1.7828890980E+01    1.4810156136E+02    5.6505105540E+01    1.5851466629E+02    1.0904988148E+00    8.9406180898E+04    2.3721587927E+05    4.6787976160E-01
    4.2531441210E+01   -1.6624323360E+01    1.6369088350E+02    6.2094619048E+01    1.7507269077E+02    1.0645605538E+00    8.6471325919E+04    2.3249294324E+05    5.1916273845E-01
    4.5109898660E+01   -1.5637593960E+01    1.8142215019E+02    6.7950730279E+01    1.9372996239E+02    1.0326042589E+00    8.2883742020E+04    2.2658684430E+05    5.7791645080E-01
    4.7222101310E+01   -1.4829304830E+01    2.0406981065E+02    7.1737921617E+01    2.1631185131E+02    9.9112742486E-01    7.8297341505E+04    2.1893118475E+05    6.5044044001E-01
    4.9384793640E+01   -1.4102194370E+01    2.3353688321E+02    6.8743690370E+01    2.4344438951E+02    9.3704558550E-01    7.2390313342E+04    2.0874286668E+05    7.4024568337E-01
    5.1600068280E+01   -1.3540614770E+01    2.6513737091E+02    5.8134321345E+01    2.7143585757E+02    8.7652604449E-01    6.5936423881E+04    1.9713115055E+05    8.3641713046E-01
    5.3854166510E+01   -1.3148350710E+01    2.9522089227E+02    4.2489329511E+01    2.9826283435E+02    8.1433301989E-01    5.9490864099E+04    1.8494898546E+05    9.3263349055E-01
    5.6133064010E+01   -1.2928043990E+01    3.2301994322E+02    2.1948322400E+01    3.2376474882E+02    7.5304914803E-01    5.3320900082E+04    1.7277091628E+05    1.0283204400E+00
    5.8422566480E+01   -1.2881175950E+01    3.4023444476E+02    2.1762371644E+00    3.4024140460E+02    7.0759893023E-01    4.8927662813E+04    1.6327647382E+05    1.0935521359E+00
    6.0685277420E+01   -1.2925914190E+01    3.4180749206E+02   -7.0510821610E+00    3.4188021205E+02    6.9998716721E-01    4.8214565261E+04    1.6144439098E+05    1.1009455955E+00
    6.3504918180E+01   -1.2981665290E+01    3.3935701548E+02   -7.6439718628E+00    3.3944309429E+02    7.0542337821E-01    4.8754142010E+04    1.6252536521E+05    1.0912446438E+00
    6.7018581810E+01   -1.3051139870E+01    3.4346859018E+02   -7.2470069375E+00    3.4354503569E+02    6.9626677152E-01    4.7881359549E+04    1.6079121214E+05    1.1071953611E+00
    7.1397111430E+01   -1.3137716350E+01    3.5131156157E+02   -7.0507653414E+00    3.5138230830E+02    6.7552830584E-01    4.5909949957E+04    1.5647845495E+05    1.1391587219E+00
    7.6853409680E+01   -1.3245604970E+01    3.6024638096E+02   -7.1171339050E+00    3.6031667820E+02    6.5294016147E-01    4.3787436883E+04    1.5185358530E+05    1.1759321826E+00
    8.3652794060E+01   -1.3380052480E+01    3.6817910718E+02   -7.2900703307E+00    3.6825127303E+02    6.3048766862E-01    4.1706358924E+04    1.4701579846E+05    1.2100892399E+00
    9.2125901690E+01   -1.3547597450E+01    3.7593681916E+02   -7.4632809616E+00    3.7601089420E+02    6.1167530357E-01    3.9982845046E+04    1.4319772207E+05    1.2429682529E+00
    1.0268477089E+02   -1.3756388210E+01    3.7976414103E+02   -7.5339859654E+00    3.7983886551E+02    5.9526569778E-01    3.8494177713E+04    1.3917718661E+05    1.2623892492E+00
    1.1584286401E+02   -1.4016579340E+01    3.7976392485E+02   -7.5339759509E+00    3.7983864918E+02    5.9526597513E-01    3.8494202078E+04    1.3917721862E+05    1.2623884248E+00
   -1.3413917200E+00   -3.1817897940E+01    7.3567752977E+01    0.0000000000E+00    7.3567752977E+01    1.1706078615E+00    9.8155528805E+04    2.4855661230E+05    2.1471965868E-01
    9.1489013400E+00   -2.7997494540E+01    7.3567753620E+01    2.1929587942E+01    7.6766667246E+01    1.1982521705E+00    1.0176080696E+05    2.5793274002E+05    2.2263452315E-01
    1.7743498550E+01   -2.4867483350E+01    9.3410458838E+01    3.1990751718E+01    9.8736629555E+01    1.1659920294E+00    9.7990771684E+04    2.5066051189E+05    2.8785215311E-01
    2.4784987760E+01   -2.2303101760E+01    1.0631635256E+02    3.8092222247E+01    1.1293442442E+02    1.1520483661E+00    9.6417410863E+04    2.4839024570E+05    3.2992858816E-01
    3.0554060080E+01   -2.0202127720E+01    1.2046022578E+02    4.3580299148E+01    1.2810116498E+02    1.1328849982E+00    9.4217100068E+04    2.4483801973E+05    3.7541974294E-01
    3.5280679510E+01   -1.8480811930E+01    1.3432384633E+02    4.8715668133E+01    1.4288496077E+02    1.1135621111E+00    9.2010801617E+04    2.4139430844E+05    4.2010738667E-01
    3.9153247660E+01   -1.7070540360E+01    1.4903978954E+02    5.3899024481E+01    1.5848647799E+02    1.0907848575E+00    8.9412744204E+04    2.3723100774E+05    4.6784073636E-01
    4.2326113370E+01   -1.5915099610E+01    1.6478910293E+02    5.9013935693E+01    1.7503740471E+02    1.0648881852E+00    8.6483122856E+04    2.3252087879E+05    5.1910255947E-01
    4.4925726290E+01   -1.4968436220E+01    1.8257662258E+02    6.4031232979E+01    1.9347925447E+02    1.0332868303E+00    8.2934417250E+04    2.2667618738E+05    5.7718287329E-01
    4.7055679380E+01   -1.4192820810E+01    2.0449909255E+02    6.7377928541E+01    2.1531294459E+02    9.9293806920E-01    7.8470706761E+04    2.1919290459E+05    6.4731164707E-01
    4.9245912110E+01   -1.3494964160E+01    2.3213487259E+02    6.5585734162E+01    2.4122207113E+02    9.4006405741E-01    7.2711302335E+04    2.0912852070E+05    7.3304525432E-01
    5.1486408710E+01   -1.2955334700E+01    2.6195123908E+02    5.7285198425E+01    2.6814183862E+02    8.8025346200E-01    6.6347286393E+04    1.9751334802E+05    8.2545395664E-01
    5.3764019790E+01   -1.2577563400E+01    2.9072569234E+02    4.4138719969E+01    2.9405723046E+02    8.1848900629E-01    5.9960795281E+04    1.8528921911E+05    9.1820695444E-01
    5.6065340850E+01   -1.2364190610E+01    3.1790676997E+02    2.6112072836E+01    3.1897735772E+02    7.5720811486E-01    5.3796585323E+04    1.7301312176E+05    1.0114073679E+00
    5.8376803500E+01   -1.2316649350E+01    3.3578527631E+02    7.1307595545E+00    3.3586098243E+02    7.1052192156E-01    4.9267849855E+04    1.6324398452E+05    1.0779595697E+00
    6.0645767600E+01   -1.2359460680E+01    3.3876575189E+02   -4.6151905034E+00    3.3879718806E+02    7.0037719530E-01    4.8301507847E+04    1.6094965465E+05    1.0903387161E+00
    6.3472260180E+01   -1.2412793280E+01    3.3749687762E+02   -7.1103147692E+00    3.3757176863E+02    7.0479174249E-01    4.8719495374E+04    1.6195590386E+05    1.0851283605E+00
    6.6993298720E+01   -1.2479232650E+01    3.4232202066E+02   -7.0409070583E+00    3.4239442198E+02    6.9589244889E-01    4.7851975649E+04    1.6042104599E+05    1.1035290963E+00
    7.1379579410E+01   -1.2562000360E+01    3.5068538408E+02   -6.8297829163E+00    3.5075188458E+02    6.7547726191E-01    4.5897567001E+04    1.5629484906E+05    1.1372253453E+00
    7.6843756600E+01   -1.2665109890E+01    3.5999608306E+02   -6.8785963013E+00    3.6006179318E+02    6.5307730958E-01    4.3784144992E+04    1.5179430145E+05    1.1752679231E+00
    8.3650757510E+01   -1.2793561370E+01    3.6817240821E+02   -7.0498522785E+00    3.6823989815E+02    6.3070130854E-01    4.1705762372E+04    1.4702615098E+05    1.2102655121E+00
    9.2130632620E+01   -1.2953584120E+01    3.7606201879E+02   -7.2035607066E+00    3.7613100546E+02    6.1190470699E-01    3.9982133337E+04    1.4323979975E+05    1.2436095043E+00
    1.0269456436E+02   -1.3152938790E+01    3.7994272611E+02   -7.2385005553E+00    3.8001167220E+02    5.9548363617E-01    3.8493299269E+04    1.3922980797E+05    1.2632091600E+00
    1.1585479368E+02   -1.3401293890E+01    3.7994253819E+02   -7.2384887709E+00    3.8001148410E+02    5.9548391162E-01    3.8493323632E+04    1.3922984621E+05    1.2632084271E+00
   -1.9484990300E+00   -3.0101349610E+01    7.6172118166E+01    0.0000000000E+00    7.6172118166E+01    1.1686644133E+00    9.7927463060E+04    2.4820906506E+05    2.2239482262E-01
    8.6264727800E+00   -2.6485958430E+01    7.6172118667E+01    2.0414055366E+01    7.8860163065E+01    1.1924017984E+00    1.0101282728E+05    2.5623979707E+05    2.2899009679E-01
    1.7292317850E+01   -2.3523274230E+01    9.4187133780E+01    2.9646784653E+01    9.8742837766E+01    1.1651442663E+00    9.7849491158E+04    2.5030389242E+05    2.8797325266E-01
    2.4393725320E+01   -2.1095457340E+01    1.0704140057E+02    3.5747048548E+01    1.1285261590E+02    1.1515775814E+00    9.6323498102E+04    2.4814182599E+05    3.2978286776E-01
    3.0213167820E+01   -1.9105937190E+01    1.2122196611E+02    4.1061764977E+01    1.2798763070E+02    1.1326117964E+00    9.4150170747E+04    2.4465198956E+05    3.7517506457E-01
    3.4982117740E+01   -1.7475577610E+01    1.3521047139E+02    4.5988951915E+01    1.4281755940E+02    1.1132256810E+00    9.1939805989E+04    2.4120266652E+05    4.2000784866E-01
    3.8890251290E+01   -1.6139530400E+01    1.5006411637E+02    5.0857667728E+01    1.5844791380E+02    1.0903567359E+00    8.9334281557E+04    2.3702281101E+05    4.6784041749E-01
    4.2092992540E+01   -1.5044656460E+01    1.6589451353E+02    5.5517029613E+01    1.7493750369E+02    1.0644589806E+00    8.6406921005E+04    2.3230519090E+05    5.1893039292E-01
    4.4717696890E+01   -1.4147412240E+01    1.8336257968E+02    5.9743038473E+01    1.9284985422E+02    1.0336315719E+00    8.2944552467E+04    2.2658231131E+05    5.7536606816E-01
    4.6868719460E+01   -1.3412117490E+01    2.0367655445E+02    6.2008831789E+01    2.1290663224E+02    9.9684128263E-01    7.8867121151E+04    2.1976082878E+05    6.3972037920E-01
    4.9089521780E+01   -1.2750664590E+01    2.2887218295E+02    5.9593374361E+01    2.3650337502E+02    9.5029295065E-01    7.3778916376E+04    2.1102406091E+05    7.1735799444E-01
    5.1357759230E+01   -1.2238528860E+01    2.5674570728E+02    5.1595054681E+01    2.6187861287E+02    8.9639383362E-01    6.8000584965E+04    2.0073898978E+05    8.0358000116E-01
    5.3661025250E+01   -1.1879150670E+01    2.8429751793E+02    3.9377270799E+01    2.8701158192E+02    8.3922521229E-01    6.2023937979E+04    1.8962570536E+05    8.9226734181E-01
    5.5986671240E+01   -1.1674943080E+01    3.1101142673E+02    2.2800946523E+01    3.1184610101E+02    7.8058404911E-01    5.6049580317E+04    1.7807906597E+05    9.8355795274E-01
    5.8321892460E+01   -1.1627276230E+01    3.3106340138E+02    5.2315425462E+00    3.3110473383E+02    7.3055366509E-01    5.1122237248E+04    1.6785101821E+05    1.0578461464E+00
    6.0598429660E+01   -1.1667725950E+01    3.3812779593E+02   -6.0272415024E+00    3.3818151047E+02    7.0966457187E-01    4.9112502923E+04    1.6336226698E+05    1.0864665760E+00
    6.3433210150E+01   -1.1718096700E+01    3.3872297106E+02   -8.0405258910E+00    3.3881838968E+02    7.0715842314E-01    4.8878054340E+04    1.6278528724E+05    1.0891917938E+00
    6.6963154880E+01   -1.1780821780E+01    3.4341116185E+02   -7.2015814231E+00    3.4348666474E+02    6.9680991309E-01    4.7885744565E+04    1.6082025436E+05    1.1073882246E+00
    7.1358775240E+01   -1.1858931950E+01    3.5136951538E+02   -6.4772876776E+00    3.5142921277E+02    6.7614908892E-01    4.5919343589E+04    1.5655140756E+05    1.1397175604E+00
    7.6832415470E+01   -1.1956201640E+01    3.6038501694E+02   -6.3566302373E+00    3.6044107310E+02    6.5362270380E-01    4.3801577813E+04    1.5196254566E+05    1.1767628335E+00
    8.3648517490E+01   -1.2077331390E+01    3.6839501553E+02   -6.5407247076E+00    3.6845307510E+02    6.3112699571E-01    4.1716928254E+04    1.4713248538E+05    1.2112126135E+00
    9.2136404360E+01   -1.2228175150E+01    3.7620065003E+02   -6.7343108970E+00    3.7626092015E+02    6.1223421197E-01    3.9987306784E+04    1.4330596361E+05    1.2442934510E+00
    1.0270619947E+02   -1.2416023240E+01    3.8004551775E+02   -6.8046770855E+00    3.8010643140E+02    5.9575444409E-01    3.8495417926E+04    1.3927611371E+05    1.2637766473E+00
    1.1586863495E+02   -1.2649954860E+01    3.8004535194E+02   -6.8046641196E+00    3.8010626539E+02    5.9575471848E-01    3.8495442323E+04    1.3927615692E+05    1.2637759859E+00
   -2.6440171400E+00   -2.7989633500E+01    7.9467312646E+01    0.0000000000E+00    7.9467312646E+01    1.1661115183E+00    9.7628108555E+04    2.4775229986E+05    2.3211708810E-01
    8.0301409900E+00   -2.4626487800E+01    7.9467313050E+01    1.7789076509E+01    8.1434053604E+01    1.1893799565E+00    1.0060052209E+05    2.5544499485E+05    2.3664766635E-01
    1.6779571680E+01   -2.1869785270E+01    9.5670559531E+01    2.6786883358E+01    9.9349851943E+01    1.1650302641E+00    9.7789101134E+04    2.5022240616E+05    2.8981881935E-01
    2.3951377310E+01   -1.9610166800E+01    1.0822257960E+02    3.2891240299E+01    1.1311039043E+02    1.1515375853E+00    9.6274239298E+04    2.4805196139E+05    3.3061495503E-01
    2.9830081800E+01   -1.7757988250E+01    1.2229573161E+02    3.7967080873E+01    1.2805368093E+02    1.1327586792E+00    9.4126415404E+04    2.4460338261E+05    3.7544038652E-01
    3.4648898760E+01   -1.6239770220E+01    1.3635488943E+02    4.2588410274E+01    1.4285107126E+02    1.1133550137E+00    9.1916691963E+04    2.4115152968E+05    4.2018362682E-01
    3.8598979480E+01   -1.4995284460E+01    1.5131330493E+02    4.7021055216E+01    1.5845092579E+02    1.0904978052E+00    8.9314541893E+04    2.3697575311E+05    4.6793127562E-01
    4.1836995390E+01   -1.3975165280E+01    1.6718913601E+02    5.1092367545E+01    1.7482172983E+02    1.0647458758E+00    8.6404951845E+04    2.3228310058E+05    5.1866275478E-01
    4.4491355150E+01   -1.3138951090E+01    1.8444216165E+02    5.4467312246E+01    1.9231640361E+02    1.0345880797E+00    8.3016761943E+04    2.2667433483E+05    5.7379023282E-01
    4.6667302190E+01   -1.2453478970E+01    2.0371878064E+02    5.6154519002E+01    2.1131651991E+02    9.9962474124E-01    7.9140773564E+04    2.2017089118E+05    6.3472818692E-01
    4.8920542700E+01   -1.1837506060E+01    2.2706689826E+02    5.4501504351E+01    2.3351614561E+02    9.5547457048E-01    7.4317347495E+04    2.1184428270E+05    7.0764812776E-01
    5.1217767060E+01   -1.1359980810E+01    2.5301841397E+02    4.8423299786E+01    2.5761043024E+02    9.0350048957E-01    6.8747870257E+04    2.0184923757E+05    7.8928526817E-01
    5.3547474250E+01   -1.1024107310E+01    2.7908341693E+02    3.8642512697E+01    2.8174598026E+02    8.4793020253E-01    6.2930752097E+04    1.9098156805E+05    8.7406212565E-01
    5.5897937520E+01   -1.0832139080E+01    3.0480066603E+02    2.4857259167E+01    3.0581257225E+02    7.9017354076E-01    5.7039762823E+04    1.7954844703E+05    9.6197481893E-01
    5.8257283820E+01   -1.0785364750E+01    3.2549169077E+02    9.3765505662E+00    3.2562671952E+02    7.3893560277E-01    5.1962831384E+04    1.6908276934E+05    1.0377981890E+00
    6.0542934920E+01   -1.0822920750E+01    3.3473159760E+02   -3.0422436373E+00    3.3474542219E+02    7.1311324081E-01    4.9464515746E+04    1.6361506236E+05    1.0741946820E+00
    6.3387668370E+01   -1.0869665670E+01    3.3710837165E+02   -7.0896035657E+00    3.3718291285E+02    7.0683819409E-01    4.8853599971E+04    1.6231503584E+05    1.0839600058E+00
    6.6928278510E+01   -1.0927847880E+01    3.4243794890E+02   -6.7783725083E+00    3.4250502943E+02    6.9602971823E-01    4.7805927094E+04    1.6034033478E+05    1.1045260279E+00
    7.1335040140E+01   -1.1000266600E+01    3.5065814425E+02   -6.0275039673E+00    3.5070994416E+02    6.7585244815E-01    4.5878540911E+04    1.5626042117E+05    1.1376409315E+00
    7.6819904930E+01   -1.1090406260E+01    3.5987889820E+02   -5.8912394122E+00    3.5992711494E+02    6.5369117238E-01    4.3790799574E+04    1.5181903669E+05    1.1752910258E+00
    8.3646704750E+01   -1.1202604360E+01    3.6807199253E+02   -6.1009020048E+00    3.6812255118E+02    6.3132781966E-01    4.1716094073E+04    1.4706718140E+05    1.2103307013E+00
    9.2143852340E+01   -1.1342260220E+01    3.7600849275E+02   -6.2944669538E+00    3.7606117446E+02    6.1244836830E-01    3.9986740582E+04    1.4327369015E+05    1.2438591882E+00
    1.0272015028E+02   -1.1516094970E+01    3.7994384721E+02   -6.3390659997E+00    3.7999672471E+02    5.9596726385E-01    3.8494678922E+04    1.3926479201E+05    1.2636496666E+00
    1.1588445383E+02   -1.1732475150E+01    3.7994369743E+02   -6.3390521401E+00    3.7999657472E+02    5.9596753741E-01    3.8494703324E+04    1.3926483880E+05    1.2636490573E+00
   -3.4244493700E+00   -2.5389355320E+01    8.2759167321E+01    0.0000000000E+00    8.2759167321E+01    1.1634568345E+00    9.7317096121E+04    2.4727704464E+05    2.4184252104E-01
    7.3651011700E+00   -2.2336822080E+01    8.2759167654E+01    1.5584823958E+01    8.4213814595E+01    1.1835257355E+00    9.9860610972E+04    2.5384828990E+05    2.4502537671E-01
    1.6211961590E+01   -1.9833918240E+01    9.7089703231E+01    2.3727106672E+01    9.9946916234E+01    1.1635585938E+00    9.7574738963E+04    2.4974846541E+05    2.9169622660E-01
    2.3465973270E+01   -1.7781671750E+01    1.0943159597E+02    2.9540536545E+01    1.1334865458E+02    1.1505661014E+00    9.6120383743E+04    2.4769214853E+05    3.3143654336E-01
    2.9413995930E+01   -1.6098927260E+01    1.2342914879E+02    3.4254594457E+01    1.2809423099E+02    1.1321844569E+00    9.4022894992E+04    2.4434575350E+05    3.7567071165E-01
    3.4291232380E+01   -1.4719142240E+01    1.3758649075E+02    3.8494985321E+01    1.4287024299E+02    1.1127808334E+00    9.1816440722E+04    2.4089809087E+05    4.2036094265E-01
    3.8290524370E+01   -1.3587757280E+01    1.5263299535E+02    4.2438040004E+01    1.5842291031E+02    1.0899298145E+00    8.9218017185E+04    2.3672247330E+05    4.6797963264E-01
    4.1569977270E+01   -1.2660039290E+01    1.6846439000E+02    4.5896528856E+01    1.7460453047E+02    1.0643871247E+00    8.6334393186E+04    2.3206083083E+05    5.1814269080E-01
    4.4259214110E+01   -1.1899312610E+01    1.8527550674E+02    4.8473418132E+01    1.9151158102E+02    1.0352037572E+00    8.3055494152E+04    2.2662265678E+05    5.7142568860E-01
    4.6464505540E+01   -1.1275508220E+01    2.0310595282E+02    4.9414366847E+01    2.0903063824E+02    1.0031023150E+00    7.9493466159E+04    2.2064834524E+05    6.2755649412E-01
    4.8749833090E+01   -1.0716465510E+01    2.2424422045E+02    4.7578585869E+01    2.2923610588E+02    9.6393876111E-01    7.5203168796E+04    2.1333502362E+05    6.9362646683E-01
    5.1074933610E+01   -1.0282610490E+01    2.4804222294E+02    4.2094149311E+01    2.5158867576E+02    9.1729280493E-01    7.0179107359E+04    2.0447864634E+05    7.6873586778E-01
    5.3429410000E+01   -9.9768544500E+00    2.7250124176E+02    3.3557909040E+01    2.7455975674E+02    8.6649753327E-01    6.4814065581E+04    1.9469478173E+05    8.4844148767E-01
    5.5802659770E+01   -9.8012510800E+00    2.9706464190E+02    2.1624525846E+01    2.9785066994E+02    8.1234726506E-01    5.9235363180E+04    1.8412211053E+05    9.3221244619E-01
    5.8183946580E+01   -9.7569836600E+00    3.1858597144E+02    8.1249989196E+00    3.1868956181E+02    7.6095038024E-01    5.4072635175E+04    1.7382380368E+05    1.0103997333E+00
    6.0480449870E+01   -9.7909973100E+00    3.3161823334E+02   -3.5939905495E+00    3.3163770813E+02    7.2650210252E-01    5.0703853064E+04    1.6671127989E+05    1.0609571488E+00
    6.3336991030E+01   -9.8333085300E+00    3.3713860672E+02   -7.7775315789E+00    3.3722830566E+02    7.1093799936E-01    4.9198263486E+04    1.6342063493E+05    1.0834303057E+00
    6.6890192450E+01   -9.8859417600E+00    3.4315793399E+02   -6.9686083691E+00    3.4322868348E+02    6.9688796618E-01    4.7847069616E+04    1.6066644123E+05    1.1070656277E+00
    7.1310018090E+01   -9.9514159200E+00    3.5112858036E+02   -5.6281880127E+00    3.5117368416E+02    6.7631437486E-01    4.5889400784E+04    1.5642604606E+05    1.1393995976E+00
    7.6807912830E+01   -1.0032864870E+01    3.6005774475E+02   -5.2370744349E+00    3.6009582961E+02    6.5419730497E-01    4.3810765081E+04    1.5194147000E+05    1.1760289978E+00