 TITLE = "Projeto1" 
 VARIABLES = "X" "Y" "u" "v" "q_vel_out" "rho" "p" "e" "mach" 
 ZONE I =           24  J =          13  DATAPACKING = POINT
    8.4500000000E-06   -3.5279003140E+01    6.2877336897E+01    0.0000000000E+00    6.2877336897E+01    1.1778942385E+00    9.9011940611E+04    2.4985828900E+05    1.8329030078E-01
    1.0306326720E+01   -3.1045768330E+01    6.2878384530E+01    2.2980423299E+01    6.6946180594E+01    1.2060290154E+00    1.0266680260E+05    2.5936959155E+05    1.9392135931E-01
    1.8746475060E+01   -2.7579047530E+01    8.3172857835E+01    3.2569476670E+01    8.9322422107E+01    1.1685455749E+00    9.8193196453E+04    2.5014460870E+05    2.6042255891E-01
    2.5658349530E+01   -2.4740052520E+01    9.3891745743E+01    3.7324700505E+01    1.0103857277E+02    1.1548743804E+00    9.6599312069E+04    2.4739321703E+05    2.9525927010E-01
    3.1318677600E+01   -2.2415119790E+01    1.0582784616E+02    4.2112360457E+01    1.1389900757E+02    1.1359366241E+00    9.4385600280E+04    2.4333224448E+05    3.3394896518E-01
    3.5954079200E+01   -2.0511167100E+01    1.1757010872E+02    4.6734734471E+01    1.2651824324E+02    1.1170823516E+00    9.2205402594E+04    2.3945400017E+05    3.7218044101E-01
    3.9750139730E+01   -1.8951966780E+01    1.3047592993E+02    5.1725287549E+01    1.4035481347E+02    1.0949662415E+00    8.9664961638E+04    2.3494753341E+05    4.1452647653E-01
    4.2858840280E+01   -1.7675093850E+01    1.4460879834E+02    5.6999961414E+01    1.5543712606E+02    1.0699402922E+00    8.6823125274E+04    2.2998306648E+05    4.6116124610E-01
    4.5404642460E+01   -1.6629426760E+01    1.6156517617E+02    6.3028783194E+01    1.7342414383E+02    1.0390861647E+00    8.3358327657E+04    2.2402156242E+05    5.1748388010E-01
    4.7489471440E+01   -1.5773100850E+01    1.8422778253E+02    6.7802219747E+01    1.9630847373E+02    9.9710760449E-01    7.8726577181E+04    2.1602921923E+05    5.9045303317E-01
    4.9607350680E+01   -1.5003262190E+01    2.1359609174E+02    6.6261488915E+01    2.2363782176E+02    9.4169405463E-01    7.2688154428E+04    2.0526927059E+05    6.8030604330E-01
    5.1781269800E+01   -1.4409848660E+01    2.4324641551E+02    5.6701791251E+01    2.4976771567E+02    8.8176962422E-01    6.6323925339E+04    1.9331393258E+05    7.6968804337E-01
    5.3996560260E+01   -1.3996868810E+01    2.6950376466E+02    4.1901699069E+01    2.7274169382E+02    8.2467085825E-01    6.0419014356E+04    1.8172035680E+05    8.5161052728E-01
    5.6238272770E+01   -1.3767109600E+01    2.8941615097E+02    2.2437869509E+01    2.9028463003E+02    7.7610026061E-01    5.5515588463E+04    1.7148807997E+05    9.1730014975E-01
    5.8491279600E+01   -1.3722117420E+01    2.9335582430E+02    4.5198493633E+00    2.9339064178E+02    7.5565913396E-01    5.3521875845E+04    1.6632752903E+05    9.3170739877E-01
    6.0744619520E+01   -1.3769711210E+01    2.8370981639E+02   -3.4847540646E+00    2.8373121687E+02    7.6782799169E-01    5.4729283892E+04    1.6772959302E+05    8.9818374336E-01
    6.3553982470E+01   -1.3829049520E+01    2.7576200095E+02   -4.7393730434E+00    2.7580272447E+02    7.7786676231E-01    5.5709592954E+04    1.6885903344E+05    8.7100800998E-01
    6.7056569970E+01   -1.3903029860E+01    2.7296089904E+02   -5.0565623052E+00    2.7300773107E+02    7.7270600851E-01    5.5183762887E+04    1.6675554115E+05    8.6340074084E-01
    7.1423438710E+01   -1.3995265220E+01    2.7132600400E+02   -4.9693551669E+00    2.7137150723E+02    7.6168122166E-01    5.4027130031E+04    1.6311387783E+05    8.6115416077E-01
    7.6867854440E+01   -1.4110260120E+01    2.6636101142E+02   -4.7159765383E+00    2.6640275682E+02    7.4719906499E-01    5.2548385681E+04    1.5788548324E+05    8.4901070731E-01
    8.3655707370E+01   -1.4253630600E+01    2.5855450327E+02   -4.4819712762E+00    2.5859334723E+02    7.2915483187E-01    5.0761934982E+04    1.5128431856E+05    8.2831232705E-01
    9.2118497430E+01   -1.4432378480E+01    2.4468889230E+02   -5.0598334121E+00    2.4474120194E+02    7.0418651421E-01    4.8495399353E+04    1.4232827041E+05    7.8820040294E-01
    1.0266952384E+02   -1.4655233290E+01    2.6383594751E+02   -5.6284963111E+00    2.6389597793E+02    6.8351269502E-01    4.6782542028E+04    1.4075663866E+05    8.5251128713E-01
    1.1582405090E+02   -1.4933078770E+01    2.6382670669E+02   -5.6279064387E+00    2.6388672663E+02    6.8351298355E-01    3.3786855511E+04    1.0826576372E+05    1.0031203136E+00
   -3.7493654000E-01   -3.4351956070E+01    6.2878384530E+01    0.0000000000E+00    6.2878384530E+01    1.1778935791E+00    9.9011863020E+04    2.4985817131E+05    1.8329337520E-01
    9.9825822500E+00   -3.0229171540E+01    6.2879432003E+01    2.2980800075E+01    6.6947293755E+01    1.2060289438E+00    1.0266680807E+05    2.5936969494E+05    1.9392457285E-01
    1.8465667490E+01   -2.6852503770E+01    8.3174291297E+01    3.2570025095E+01    8.9323956850E+01    1.1685452892E+00    9.8193180510E+04    2.5014472790E+05    2.6042702281E-01
    2.5413537970E+01   -2.4086928300E+01    9.3893512372E+01    3.7325389030E+01    1.0104046878E+02    1.1548740784E+00    9.6599296663E+04    2.4739339821E+05    2.9526479566E-01
    3.1104036770E+01   -2.1821850880E+01    1.0582990634E+02    4.2113172892E+01    1.1390122215E+02    1.1359363229E+00    9.4385585718E+04    2.4333249265E+05    3.3395543974E-01
    3.5764723450E+01   -1.9966692010E+01    1.1757242241E+02    4.6735656705E+01    1.2652073395E+02    1.1170820349E+00    9.2205385827E+04    2.3945430774E+05    3.7218774904E-01
    3.9581973480E+01   -1.8447265030E+01    1.3047843879E+02    5.1726297822E+01    1.4035751806E+02    1.0949658866E+00    8.9664939547E+04    2.3494789034E+05    4.1453444819E-01
    4.2708431140E+01   -1.7202809630E+01    1.4461146306E+02    5.7001044154E+01    1.5544000219E+02    1.0699398325E+00    8.6823090182E+04    2.2998345152E+05    4.6116977331E-01
    4.5269114030E+01   -1.6183562030E+01    1.6156797521E+02    6.3029930528E+01    1.7342716845E+02    1.0390854844E+00    8.3358266424E+04    2.2402194416E+05    5.1749292599E-01
    4.7366413090E+01   -1.5348765120E+01    1.8423078606E+02    6.7803406527E+01    1.9631170232E+02    9.9710636715E-01    7.8726454830E+04    2.1602952149E+05    5.9046283653E-01
    4.9504999150E+01   -1.4598047580E+01    2.1359942328E+02    6.6262620031E+01    2.2364133884E+02    9.4169198849E-01    7.2687944371E+04    2.0526943447E+05    6.8031697895E-01
    5.1698067720E+01   -1.4018847730E+01    2.4325020768E+02    5.6702773711E+01    2.4977163186E+02    8.8176659739E-01    6.6323617867E+04    1.9331393198E+05    7.6970057462E-01
    5.3931360230E+01   -1.3615074210E+01    2.6950812868E+02    4.1902460996E+01    2.7274612309E+02    8.2466658087E-01    6.0418590537E+04    1.8172013440E+05    8.5162513559E-01
    5.6190344140E+01   -1.3389449650E+01    2.8942141911E+02    2.2438319478E+01    2.9028991719E+02    7.7609434584E-01    5.5515012559E+04    1.7148758215E+05    9.1731811968E-01
    5.8460312160E+01   -1.3343492330E+01    2.9336195670E+02    4.5199023663E+00    2.9339677427E+02    7.5565194194E-01    5.3521178737E+04    1.6632683632E+05    9.3172850731E-01
    6.0717878330E+01   -1.3389802890E+01    2.8371620561E+02   -3.4849446305E+00    2.8373760795E+02    7.6782102804E-01    5.4728613980E+04    1.6772903028E+05    8.9820539926E-01
    6.3531877740E+01   -1.3447528720E+01    2.7576868539E+02   -4.7395773867E+00    2.7580941144E+02    7.7786086532E-01    5.5709020151E+04    1.6885881176E+05    8.7103030429E-01
    6.7039463590E+01   -1.3519483110E+01    2.7296787320E+02   -5.0567873988E+00    2.7301470821E+02    7.7270047689E-01    5.5183233200E+04    1.6675548266E+05    8.6342385970E-01
    7.1411597120E+01   -1.3609173330E+01    2.7133387893E+02   -4.9696498550E+00    2.7137938624E+02    7.6167585356E-01    5.4026638074E+04    1.6311407887E+05    8.6118004972E-01
    7.6861381490E+01   -1.3720971250E+01    2.6637067416E+02   -4.7162903562E+00    2.6641242359E+02    7.4719474525E-01    5.2547988790E+04    1.5788626198E+05    8.4904226689E-01
    8.3654450210E+01   -1.3860326380E+01    2.5856548844E+02   -4.4821569923E+00    2.5860433396E+02    7.2915236770E-01    5.0761693058E+04    1.5128570299E+05    8.2834809336E-01
    9.2121916200E+01   -1.4034031630E+01    2.4469939500E+02   -5.0600732848E+00    2.4475170735E+02    7.0418681691E-01    4.8495395860E+04    1.4233008132E+05    7.8823443391E-01
    1.0267651289E+02   -1.4250554360E+01    2.6383332731E+02   -5.6288330727E+00    2.6389336551E+02    6.8351240807E-01    4.6782469267E+04    1.4075597555E+05    8.5250333176E-01
    1.1583269561E+02   -1.4520449310E+01    2.6383594751E+02   -5.6284963111E+00    2.6389597793E+02    6.8351269502E-01    4.6782542028E+04    1.4075663866E+05    8.5251128713E-01
   -8.1922002000E-01   -3.3214552130E+01    6.5173955817E+01    0.0000000000E+00    6.5173955817E+01    1.1764230203E+00    9.8838848264E+04    2.4959563406E+05    1.9003254431E-01
    9.5991315900E+00   -2.9227426920E+01    6.5174850247E+01    2.2494276340E+01    6.8947469662E+01    1.2005032362E+00    1.0199828768E+05    2.5784916747E+05    1.9991231190E-01
    1.8133277590E+01   -2.5961397340E+01    8.4674808238E+01    3.1508302445E+01    9.0347087796E+01    1.1677800141E+00    9.8115671543E+04    2.5005523725E+05    2.6342771771E-01
    2.5123991480E+01   -2.3286050360E+01    9.6035131672E+01    3.6647135921E+01    1.0278987833E+02    1.1542647664E+00    9.6548722138E+04    2.4746964707E+05    3.0037638665E-01
    3.0850429370E+01   -2.1094553290E+01    1.0855501947E+02    4.1555518283E+01    1.1623705670E+02    1.1353163018E+00    9.4340037162E+04    2.4351975247E+05    3.4079326398E-01
    3.5541258340E+01   -1.9299394780E+01    1.2083263017E+02    4.6208235542E+01    1.2936663228E+02    1.1163367153E+00    9.2149934512E+04    2.3971618872E+05    3.8054703589E-01
    3.9383786280E+01   -1.7828890980E+01    1.3421963247E+02    5.1102727459E+01    1.4361893501E+02    1.0940477729E+00    8.9593273450E+04    2.3526631629E+05    4.2415845161E-01
    4.2531441210E+01   -1.6624323360E+01    1.4877150177E+02    5.6133734897E+01    1.5900929511E+02    1.0688212861E+00    8.6731218416E+04    2.3034006119E+05    4.7176239328E-01
    4.5109898660E+01   -1.5637593960E+01    1.6569027572E+02    6.1500253920E+01    1.7673581612E+02    1.0383681718E+00    8.3309819152E+04    2.2449154768E+05    5.2733687326E-01
    4.7222101310E+01   -1.4829304830E+01    1.8704187123E+02    6.4974906073E+01    1.9800606055E+02    9.9975038192E-01    7.9037718784E+04    2.1719260365E+05    5.9517277400E-01
    4.9384793640E+01   -1.4102194370E+01    2.1437602782E+02    6.2320030552E+01    2.2325068312E+02    9.5040822770E-01    7.3636817265E+04    2.0777662844E+05    6.7785431928E-01
    5.1600068280E+01   -1.3540614770E+01    2.4281694099E+02    5.2619982722E+01    2.4845307286E+02    8.9567447111E-01    6.7770491036E+04    1.9707074069E+05    7.6337008434E-01
    5.3854166510E+01   -1.3148350710E+01    2.6862027420E+02    3.8256054924E+01    2.7133075286E+02    8.4190791983E-01    6.2145000860E+04    1.8635329157E+05    8.4404227678E-01
    5.6133064010E+01   -1.2928043990E+01    2.8930266118E+02    1.9769735844E+01    2.8997736502E+02    7.9392077360E-01    5.7241435494E+04    1.7648274606E+05    9.1271125498E-01
    5.8422566480E+01   -1.2881175950E+01    2.9657706818E+02    3.1245135102E+00    2.9659352649E+02    7.6806635897E-01    5.4680130840E+04    1.7048285029E+05    9.3946855676E-01
    6.0685277420E+01   -1.2925914190E+01    2.9057042251E+02   -3.8592711138E+00    2.9059605023E+02    7.7202922112E-01    5.5091700010E+04    1.7032666469E+05    9.1938935612E-01
    6.3504918180E+01   -1.2981665290E+01    2.8414887443E+02   -4.4571045581E+00    2.8418382892E+02    7.7880385273E-01    5.5766111290E+04    1.7086355249E+05    8.9756148544E-01
    6.7018581810E+01   -1.3051139870E+01    2.8178902358E+02   -4.4470485723E+00    2.8182411190E+02    7.7317950779E-01    5.5212840486E+04    1.6873692672E+05    8.9132123129E-01
    7.1397111430E+01   -1.3137716350E+01    2.8102084062E+02   -4.1507304109E+00    2.8105149248E+02    7.6168251709E-01    5.4046914838E+04    1.6519991580E+05    8.9170954956E-01
    7.6853409680E+01   -1.3245604970E+01    2.7852189284E+02   -3.8286875739E+00    2.7854820703E+02    7.4697734051E-01    5.2563939207E+04    1.6038849916E+05    8.8745453118E-01
    8.3652794060E+01   -1.3380052480E+01    2.7397056990E+02   -3.5350835882E+00    2.7399337581E+02    7.2889708964E-01    5.0773539815E+04    1.5429386554E+05    8.7738545845E-01
    9.2125901690E+01   -1.3547597450E+01    2.6323872625E+02   -4.9846995413E+00    2.6328591726E+02    7.0452516624E-01    4.8515405517E+04    1.4570717085E+05    8.4795349555E-01
    1.0268477089E+02   -1.3756388210E+01    2.7462026717E+02   -5.9459351547E+00    2.7468462878E+02    6.8211033521E-01    4.6801662837E+04    1.4273733062E+05    8.8627196666E-01
    1.1584286401E+02   -1.4016579340E+01    2.7460638864E+02   -5.9455690368E+00    2.7467074557E+02    6.8211114166E-01    3.3786713586E+04    1.1019738675E+05    1.0430448548E+00
   -1.3413917200E+00   -3.1817897940E+01    6.8931822501E+01    0.0000000000E+00    6.8931822501E+01    1.1739044677E+00    9.8542735486E+04    2.4914579869E+05    2.0107580405E-01
    9.1489013400E+00   -2.7997494540E+01    6.8932537723E+01    2.0724551856E+01    7.1980565478E+01    1.1993011600E+00    1.0183124413E+05    2.5768502099E+05    2.0877324341E-01
    1.7743498550E+01   -2.4867483350E+01    8.7414411918E+01    3.0216578961E+01    9.2489572683E+01    1.1678183411E+00    9.8119940815E+04    2.5029479855E+05    2.6967318359E-01
    2.4784987760E+01   -2.2303101760E+01    9.9056368556E+01    3.5774436369E+01    1.0531844306E+02    1.1541337381E+00    9.6547367508E+04    2.4776922974E+05    3.0775014230E-01
    3.0554060080E+01   -2.0202127720E+01    1.1206590821E+02    4.0734972783E+01    1.1923969889E+02    1.1351660588E+00    9.4346343098E+04    2.4393581330E+05    3.4956183928E-01
    3.5280679510E+01   -1.8480811930E+01    1.2488528051E+02    4.5336932187E+01    1.3285996654E+02    1.1161339545E+00    9.2156204686E+04    2.4024138204E+05    3.9077429719E-01
    3.9153247660E+01   -1.7070540360E+01    1.3876200623E+02    5.0018589997E+01    1.4750170751E+02    1.0938292173E+00    8.9600941588E+04    2.3590144041E+05    4.3556352414E-01
    4.2326113370E+01   -1.5915099610E+01    1.5372692537E+02    5.4614452368E+01    1.6314014219E+02    1.0686554996E+00    8.6745499890E+04    2.3108472569E+05    4.8394076219E-01
    4.4925726290E+01   -1.4968436220E+01    1.7082700687E+02    5.9136877905E+01    1.8077343998E+02    1.0385454132E+00    8.3359958796E+04    2.2536922878E+05    5.3926794382E-01
    4.7055679380E+01   -1.4192820810E+01    1.9156687764E+02    6.2027094007E+01    2.0135845898E+02    1.0009517273E+00    7.9196195492E+04    2.1828239723E+05    6.0500681702E-01
    4.9245912110E+01   -1.3494964160E+01    2.1731278473E+02    6.0166272479E+01    2.2548797473E+02    9.5273378980E-01    7.3928397031E+04    2.0904178482E+05    6.8413137390E-01
    5.1486408710E+01   -1.2955334700E+01    2.4430587193E+02    5.2270299322E+01    2.4983503207E+02    8.9867592313E-01    6.8144410682E+04    1.9840759835E+05    7.6678878235E-01
    5.3764019790E+01   -1.2577563400E+01    2.6924780592E+02    3.9895086585E+01    2.7218743345E+02    8.4524014896E-01    6.2561062185E+04    1.8771288585E+05    8.4555537529E-01
    5.6065340850E+01   -1.2364190610E+01    2.8984971822E+02    2.3379607955E+01    2.9079110237E+02    7.9697310114E-01    5.7633361237E+04    1.7777921271E+05    9.1390689401E-01
    5.8376803500E+01   -1.2316649350E+01    2.9854580575E+02    7.3693837450E+00    2.9863674581E+02    7.6978323342E-01    5.4924400320E+04    1.7163713854E+05    9.4488898992E-01
    6.0645767600E+01   -1.2359460680E+01    2.9455818638E+02   -1.3576443433E+00    2.9456131511E+02    7.7195943726E-01    5.5145645115E+04    1.7135417123E+05    9.3143664879E-01
    6.3472260180E+01   -1.2412793280E+01    2.9009145102E+02   -3.3699954449E+00    2.9011102500E+02    7.7817011694E-01    5.5750919049E+04    1.7212441077E+05    9.1603374940E-01
    6.6993298720E+01   -1.2479232650E+01    2.8957289779E+02   -3.7947571586E+00    2.8959776124E+02    7.7274269022E-01    5.5198354674E+04    1.7039963947E+05    9.1576822146E-01
    7.1379579410E+01   -1.2562000360E+01    2.9059422858E+02   -3.5892928763E+00    2.9061639442E+02    7.6119993173E-01    5.4035394344E+04    1.6723315542E+05    9.2186282119E-01
    7.6843756600E+01   -1.2665109890E+01    2.9111643406E+02   -3.2324314029E+00    2.9113437927E+02    7.4643569475E-01    5.2554742293E+04    1.6302051190E+05    9.2729884645E-01
    8.3650757510E+01   -1.2793561370E+01    2.9117843442E+02   -2.8302047566E+00    2.9119218865E+02    7.2834037255E-01    5.0770052067E+04    1.5780417298E+05    9.3213559054E-01
    9.2130632620E+01   -1.2953584120E+01    2.8598350084E+02   -4.8494604845E+00    2.8602461436E+02    7.0506877513E-01    4.8520095192E+04    1.5014110444E+05    9.2149781476E-01
    1.0269456436E+02   -1.3152938790E+01    2.9526506922E+02   -5.9374643275E+00    2.9532476121E+02    6.8030201776E-01    4.6802840263E+04    1.4667395411E+05    9.5159164114E-01
    1.1585479368E+02   -1.3401293890E+01    2.9526839920E+02   -5.9378164667E+00    2.9532809760E+02    6.8030222584E-01    4.6803241375E+04    1.4667563629E+05    9.5159845944E-01
   -1.9484990300E+00   -3.0101349610E+01    7.2538030090E+01    0.0000000000E+00    7.2538030090E+01    1.1713581379E+00    9.8243615102E+04    2.4869074386E+05    2.1168711374E-01
    8.6264727800E+00   -2.6485958430E+01    7.2538573389E+01    1.9648795522E+01    7.5152643299E+01    1.1937880167E+00    1.0114702067E+05    2.5623876117E+05    2.1820630870E-01
    1.7292317850E+01   -2.3523274230E+01    8.9741812184E+01    2.8583382778E+01    9.4183876673E+01    1.1667983421E+00    9.7992713799E+04    2.5015688672E+05    2.7467147114E-01
    2.4393725320E+01   -2.1095457340E+01    1.0179707603E+02    3.4328258410E+01    1.0742939082E+02    1.1533754715E+00    9.6463065597E+04    2.4781325983E+05    3.1395248214E-01
    3.0213167820E+01   -1.9105937190E+01    1.1526959340E+02    3.9263824988E+01    1.2177326108E+02    1.1345380204E+00    9.4287370300E+04    2.4413030310E+05    3.5700202891E-01
    3.4982117740E+01   -1.7475577610E+01    1.2858169970E+02    4.3772986166E+01    1.3582830271E+02    1.1154093545E+00    9.2093174453E+04    2.4052221255E+05    3.9951185919E-01
    3.8890251290E+01   -1.6139530400E+01    1.4286817344E+02    4.8211793641E+01    1.5078359336E+02    1.0929999254E+00    8.9530842146E+04    2.3625216021E+05    4.4526012347E-01
    4.2092992540E+01   -1.5044656460E+01    1.5810201756E+02    5.2388294760E+01    1.6655564050E+02    1.0678287359E+00    8.6678257215E+04    2.3150684480E+05    4.9407291166E-01
    4.4717696890E+01   -1.4147412240E+01    1.7497052835E+02    5.6130069832E+01    1.8375328713E+02    1.0384048818E+00    8.3368529378E+04    2.2595233432E+05    5.4809190684E-01
    4.6868719460E+01   -1.3412117490E+01    1.9426527573E+02    5.7969640490E+01    2.0273005839E+02    1.0038918100E+00    7.9537224940E+04    2.1947277631E+05    6.0871270447E-01
    4.9089521780E+01   -1.2750664590E+01    2.1779373192E+02    5.5476947721E+01    2.2474830676E+02    9.6111325185E-01    7.4847358387E+04    2.1139217681E+05    6.8066192037E-01
    5.1357759230E+01   -1.2238528860E+01    2.4308811702E+02    4.7788657560E+01    2.4774097042E+02    9.1216514424E-01    6.9574339883E+04    2.0192818594E+05    7.5813405578E-01
    5.3661025250E+01   -1.1879150670E+01    2.6713657384E+02    3.6217569193E+01    2.6958052860E+02    8.6247019884E-01    6.4331428389E+04    1.9216800457E+05    8.3422836875E-01
    5.5986671240E+01   -1.1674943080E+01    2.8792103082E+02    2.0988288212E+01    2.8868499828E+02    8.1561944368E-01    5.9496874273E+04    1.8272865160E+05    9.0335178761E-01
    5.8321892460E+01   -1.1627276230E+01    2.9934879742E+02    6.2774068498E+00    2.9941460945E+02    7.8430354735E-01    5.6342563570E+04    1.7601246577E+05    9.4413208624E-01
    6.0598429660E+01   -1.1667725950E+01    2.9925441941E+02   -1.8128769462E+00    2.9925991055E+02    7.7813823736E-01    5.5734808174E+04    1.7418068665E+05    9.4503881637E-01
    6.3433210150E+01   -1.1718096700E+01    2.9675904056E+02   -3.4048717833E+00    2.9677857286E+02    7.7969488785E-01    5.5892377789E+04    1.7406774102E+05    9.3681659355E-01
    6.6963154880E+01   -1.1780821780E+01    2.9720190185E+02   -3.4260853776E+00    2.9722164882E+02    7.7327621741E-01    5.5248429512E+04    1.7227695824E+05    9.3977476539E-01
    7.1358775240E+01   -1.1858931950E+01    2.9925811194E+02   -3.0073637670E+00    2.9927322265E+02    7.6134890505E-01    5.4059911861E+04    1.6924468211E+05    9.4920067748E-01
    7.6832415470E+01   -1.1956201640E+01    3.0152371822E+02   -2.6657101171E+00    3.0153550149E+02    7.4639423517E-01    5.2570663797E+04    1.6535910682E+05    9.6025558426E-01
    8.3648517490E+01   -1.2077331390E+01    3.0488464660E+02   -2.1410748644E+00    3.0489216443E+02    7.2810628266E-01    5.0786274668E+04    1.6080778707E+05    9.7567787365E-01
    9.2136404360E+01   -1.2228175150E+01    3.0512557228E+02   -4.7006841679E+00    3.0516177888E+02    7.0591291735E-01    4.8578034407E+04    1.5431370137E+05    9.8315437346E-01
    1.0270619947E+02   -1.2416023240E+01    3.0980542302E+02   -5.9627294306E+00    3.0986279912E+02    6.8258296158E-01    4.6808045295E+04    1.4978919916E+05    1.0000527096E+00
    1.1586863495E+02   -1.2649954860E+01    3.0980643060E+02   -5.9628123121E+00    3.0986380810E+02    6.8257957680E-01    4.6808011039E+04    1.4978916443E+05    1.0000538524E+00
   -2.6440171400E+00   -2.7989633500E+01    7.6520367950E+01    0.0000000000E+00    7.6520367950E+01    1.1683995656E+00    9.7896394643E+04    2.4816169057E+05    2.2342171254E-01
    8.0301409900E+00   -2.4626487800E+01    7.6520789492E+01    1.7421614388E+01    7.8478939037E+01    1.1906852654E+00    1.0074084737E+05    2.5551880030E+05    2.2802622377E-01
    1.6779571680E+01   -2.1869785270E+01    9.2298251010E+01    2.6234181201E+01    9.5954152608E+01    1.1664546281E+00    9.7929942626E+04    2.5019474674E+05    2.7988262074E-01
    2.3951377310E+01   -1.9610166800E+01    1.0440712540E+02    3.2098126912E+01    1.0922974680E+02    1.1530654874E+00    9.6414313732E+04    2.4791447582E+05    3.1925164126E-01
    2.9830081800E+01   -1.7757988250E+01    1.1808329074E+02    3.6892508821E+01    1.2371224983E+02    1.1343860910E+00    9.4266204908E+04    2.4434624345E+05    3.6270297861E-01
    3.4648898760E+01   -1.6239770220E+01    1.3172108087E+02    4.1173875515E+01    1.3800627221E+02    1.1152298516E+00    9.2075038108E+04    2.4080777924E+05    4.0592523092E-01
    3.8598979480E+01   -1.4995284460E+01    1.4628485021E+02    4.5225769317E+01    1.5311638584E+02    1.0928430472E+00    8.9519255081E+04    2.3660878684E+05    4.5214561008E-01
    4.1836995390E+01   -1.3975165280E+01    1.6167090324E+02    4.8845771365E+01    1.6888869215E+02    1.0678431977E+00    8.6687629450E+04    2.3194832780E+05    5.0097001683E-01
    4.4491355150E+01   -1.3138951090E+01    1.7833746875E+02    5.1754650244E+01    1.8569544039E+02    1.0390762856E+00    8.3450477900E+04    2.2654132284E+05    5.5379180505E-01
    4.6667302190E+01   -1.2453478970E+01    1.9664160329E+02    5.2996587532E+01    2.0365794469E+02    1.0062679094E+00    7.9805134310E+04    2.2038110065E+05    6.1119350969E-01
    4.8920542700E+01   -1.1837506060E+01    2.1847211709E+02    5.1086725631E+01    2.2436559335E+02    9.6569221632E-01    7.5358450990E+04    2.1270256168E+05    6.7880592505E-01
    5.1217767060E+01   -1.1359980810E+01    2.4212794122E+02    4.5037846560E+01    2.4628103366E+02    9.1853748759E-01    7.0277959077E+04    2.0355154369E+05    7.5249881824E-01
    5.3547474250E+01   -1.1024107310E+01    2.6504856363E+02    3.5578317487E+01    2.6742579860E+02    8.7008370231E-01    6.5162282089E+04    1.9401840090E+05    8.2588895417E-01
    5.5897937520E+01   -1.0832139080E+01    2.8549885497E+02    2.2714861635E+01    2.8640104946E+02    8.2347402167E-01    6.0344574256E+04    1.8463439499E+05    8.9416244374E-01
    5.8257283820E+01   -1.0785364750E+01    2.9823624501E+02    9.5417932774E+00    2.9838884640E+02    7.9015118794E-01    5.6972826058E+04    1.7760797767E+05    9.3916042784E-01
    6.0542934920E+01   -1.0822920750E+01    3.0050622301E+02    6.0624348754E-01    3.0050683452E+02    7.8008186756E-01    5.5965193303E+04    1.7513537922E+05    9.4820321479E-01
    6.3387668370E+01   -1.0869665670E+01    2.9978190898E+02   -2.2939801932E+00    2.9979068581E+02    7.7946583907E-01    5.5897185535E+04    1.7476999769E+05    9.4614498197E-01
    6.6928278510E+01   -1.0927847880E+01    3.0147426551E+02   -2.7985146174E+00    3.0148725420E+02    7.7277304751E-01    5.5217600854E+04    1.7316443692E+05    9.5321782577E-01
    7.1335040140E+01   -1.1000266600E+01    3.0474408158E+02   -2.5033652840E+00    3.0475436354E+02    7.6094919625E-01    5.4034931389E+04    1.7042399128E+05    9.6655471555E-01
    7.6819904930E+01   -1.1090406260E+01    3.0854813000E+02   -2.2608528678E+00    3.0855641297E+02    7.4607952636E-01    5.2554619836E+04    1.6690256870E+05    9.8255681227E-01
    8.3646704750E+01   -1.1202604360E+01    3.1367195397E+02   -1.7027714489E+00    3.1367657569E+02    7.2797441595E-01    5.0787721545E+04    1.6278309508E+05    1.0036834519E+00
    9.2143852340E+01   -1.1342260220E+01    3.1865755528E+02   -4.1780987097E+00    3.1868494481E+02    7.0577490878E-01    4.8605006109E+04    1.5735179833E+05    1.0263373542E+00
    1.0272015028E+02   -1.1516094970E+01    3.2009234284E+02   -5.7155913068E+00    3.2014336777E+02    6.8572520614E-01    4.6834920248E+04    1.5222789771E+05    1.0353105885E+00
    1.1588445383E+02   -1.1732475150E+01    3.2009046294E+02   -5.7157927036E+00    3.2014149177E+02    6.8572456668E-01    4.6834903803E+04    1.5222741199E+05    1.0353042207E+00
   -3.4244493700E+00   -2.5389355320E+01    8.0299879534E+01    0.0000000000E+00    8.0299879534E+01    1.1654499418E+00    9.7550574302E+04    2.4763388754E+05    2.3457556601E-01
    7.3651011700E+00   -2.2336822080E+01    8.0300213954E+01    1.5397962121E+01    8.1763204429E+01    1.1850568727E+00    1.0003617007E+05    2.5405160908E+05    2.3784003194E-01
    1.6211961590E+01   -1.9833918240E+01    9.4462190518E+01    2.3460403413E+01    9.7331885659E+01    1.1649745810E+00    9.7729129988E+04    2.4984101597E+05    2.8401241704E-01
    2.3465973270E+01   -1.7781671750E+01    1.0657452552E+02    2.9118591669E+01    1.1048086654E+02    1.1520195227E+00    9.6271695393E+04    2.4771002623E+05    3.2300084873E-01
    2.9413995930E+01   -1.6098927260E+01    1.2035792508E+02    3.3618040646E+01    1.2496480619E+02    1.1337025542E+00    9.4174016463E+04    2.4428710565E+05    3.6644408686E-01
    3.4291232380E+01   -1.4719142240E+01    1.3423935321E+02    3.7574445922E+01    1.3939886275E+02    1.1145371351E+00    9.1987919645E+04    2.4079866584E+05    4.1008802338E-01
    3.8290524370E+01   -1.3587757280E+01    1.4897910929E+02    4.1178266085E+01    1.5456527618E+02    1.0921642683E+00    8.9438460552E+04    2.3664228543E+05    4.5648839438E-01
    4.1569977270E+01   -1.2660039290E+01    1.6436906054E+02    4.4228204348E+01    1.7021551670E+02    1.0673930221E+00    8.6635539071E+04    2.3205180861E+05    5.0495103680E-01
    4.4259214110E+01   -1.1899312610E+01    1.8059610473E+02    4.6383133887E+01    1.8645736282E+02    1.0395514522E+00    8.3502611991E+04    2.2682723383E+05    5.5601752986E-01
    4.6464505540E+01   -1.1275508220E+01    1.9754472953E+02    4.6941226174E+01    2.0304531238E+02    1.0093428572E+00    8.0141879549E+04    2.2116098916E+05    6.0900175607E-01
    4.8749833090E+01   -1.0716465510E+01    2.1733362797E+02    4.4889188230E+01    2.2192103341E+02    9.7317399651E-01    7.6168776100E+04    2.1438583660E+05    6.7041111741E-01
    5.1074933610E+01   -1.0282610490E+01    2.3910373624E+02    3.9433687460E+01    2.4233367985E+02    9.3072581628E-01    7.1572491579E+04    2.0625995071E+05    7.3856304182E-01
    5.3429410000E+01   -9.9768544500E+00    2.6071245810E+02    3.1167742254E+01    2.6256887470E+02    8.8624064703E-01    6.6840550388E+04    1.9765116075E+05    8.0804407254E-01
    5.5802659770E+01   -9.8012510800E+00    2.8072839063E+02    2.0024655486E+01    2.8144167448E+02    8.4192642104E-01    6.2218717711E+04    1.8889104440E+05    8.7498564757E-01
    5.8183946580E+01   -9.7569836600E+00    2.9512986860E+02    8.5110608406E+00    2.9525256561E+02    8.0658103640E-01    5.8605373297E+04    1.8166991213E+05    9.2573129905E-01
    6.0480449870E+01   -9.7909973100E+00    3.0094220025E+02    2.5943397234E-01    3.0094231208E+02    7.8907304531E-01    5.6842495666E+04    1.7783794245E+05    9.4763538885E-01
    6.3336991030E+01   -9.8333085300E+00    3.0261504591E+02   -2.4818930970E+00    3.0262522334E+02    7.8237315249E-01    5.6170962074E+04    1.7625306431E+05    9.5453562887E-01
    6.6890192450E+01   -9.8859417600E+00    3.0517443565E+02   -2.6442956326E+00    3.0518589167E+02    7.7364991057E-01    5.5295717088E+04    1.7426756115E+05    9.6477696932E-01
    7.1310018090E+01   -9.9514159200E+00    3.0894999791E+02   -2.1010439926E+00    3.0895714200E+02    7.6126652788E-01    5.4062477616E+04    1.7148935787E+05    9.7983876221E-01
    7.6807912830E+01   -1.0032864870E+01    3.1350552101E+02   -1.8382011112E+00    3.1351091000E+02    7.4621976000E-01    5.2570297762E+04    1.6809837524E+05    9.9827867717E-01