 TITLE = "Projeto1" 
 VARIABLES = "i" "j" "ksi_x" "ksi_y" "eta_x" "eta_y" "metric_jacobian" 
 ZONE I =           24  J =          13  DATAPACKING = POINT
           1           1   10.328854696022869        4.1775142234274529       -47.165315183657235        114.82962117748320        11.141672338194073     
           2           1   7.2681697482149472        2.8815074854823659       -34.266963275229038        83.427037167708747        8.9005612527755957     
           3           1   4.6951470495458141        1.8146640386473456       -20.374728000276146        49.604723465611585        6.4623045548499398     
           4           1   3.0943063504155930        1.1598436278525170       -12.232569172652394        29.781659420188952        4.7376995916880853     
           5           1   2.0811362544917689       0.75294155058151646       -7.4172829684043773        18.058266598433093        3.5079138977496260     
           6           1   1.4282912954756295       0.49672643329424743       -4.5423485756558701        11.058893409073461        2.6232445188183418     
           7           1  0.99975784293955006       0.33311857419799362       -2.8089723037799725        6.8387805702613216        1.9808884017928456     
           8           1  0.71311697619501480       0.22710754788481696       -1.7534385503651932        4.2689568250915348        1.5099318291748485     
           9           1  0.51774018371206032       0.15737623885703514       -1.1043015279982469        2.6885551448319194        1.1612046185219898     
          10           1  0.42082910212918889       0.12204141975034652      -0.80636313127272796        2.0839889286880928       0.99173619466168417     
          11           1  0.38062423150813307        9.6140345112264422E-002 -0.64026173336954695        2.0156756595756313       0.93931517303419354     
          12           1  0.35188501128802102        7.4878504406592106E-002 -0.45285665417917120        1.9750554846554809       0.89995952512957067     
          13           1  0.33284209371956447        5.6840286624740825E-002 -0.28016453669819358        1.9427700133122823       0.87178313606207003     
          14           1  0.32302085222049126        4.0994410205162105E-002 -0.11750045000345513        1.9222160990313151       0.85532196946086370     
          15           1  0.32299283063510426        2.6417322484154508E-002   1.1096747155727672E-003   1.9221094045904386       0.85306768929418897     
          16           1  0.36480761969739334        2.5678273831372618E-002   5.1340866752067400E-002   2.4307345825433120       0.96025172519884050     
          17           1  0.45881565744246017        2.6583075490351077E-002   8.0164284685253065E-002   3.7953654105634307        1.2025967062410738     
          18           1  0.57828513625627354        2.5791811009094282E-002  0.12530424090731046        5.9325096275893001        1.5077305080965293     
          19           1  0.73079539126458293        2.2413781851898067E-002  0.19612289569014382        9.2854080320902224        1.8928017142877152     
          20           1  0.92654909794095330        1.5406312498786306E-002  0.30746860265767534        14.557053085918440        2.3801068290006699     
          21           1   1.1794676935722059        3.7700577066308288E-003  0.48299532500117021        22.867337544596484        2.9988686456814735     
          22           1   1.5088316853661488       -1.2949389460399583E-002  0.76058196970840652        36.009634254259382        3.7877334422655644     
          23           1   1.9417784839232317       -3.3535689424370019E-002   1.2012597863893268        56.873400448026516        4.7983187163295975     
          24           1   2.2407212702658530       -4.6943777529304252E-002   1.5087974496130880        71.433650383639034        5.4303472909225974     
           1           2   12.778999538656418        5.0710431923420689       -51.040263345217234        128.22656212029486        12.380046294880520     
           2           2   8.9922043717304145        3.4972767515933327       -37.086878947360958        93.172030836941389        9.8905566603473041     
           3           2   5.8090417798243070        2.2020148388896001       -22.057023096571598        55.413133837111545        7.1820741168080477     
           4           2   3.8284578611546380        1.4069905351404417       -13.245951851585158        33.277436274366572        5.2660965251312186     
           5           2   2.5748937359853681       0.91300925346299378       -8.0338026247830836        20.183158252518695        3.8996805325371673     
           6           2   1.7671318864433398       0.60201812919358266       -4.9211705537848003        12.363405273599192        2.9166071171576813     
           7           2   1.2369090664321329       0.40348648223360301       -3.0440253225775353        7.6475114114430536        2.2027169785550260     
           8           2  0.88225497465601666       0.27489300561272800       -1.9006655134498045        4.7750751372980229        1.6792534298446438     
           9           2  0.64052654018925381       0.19034581882776275       -1.1973436604911434        3.0081290543098507        1.2916018510161253     
          10           2  0.52165148212241552       0.14777983974732647      -0.87633974422673100        2.3412429212705170        1.1054326805116537     
          11           2  0.47295890560307335       0.11681732688296638      -0.69805652732875978        2.2736297843321984        1.0497742680524835     
          12           2  0.43740493978176587        9.1181948674323013E-002 -0.49463948962221121        2.2273777218347428        1.0064148322191298     
          13           2  0.41380108620608763        6.9441875687695553E-002 -0.30694172482593590        2.1907710184779754       0.97535005135680142     
          14           2  0.40156218092410556        5.0351079360673949E-002 -0.12997435567913296        2.1674774804693033       0.95716515165984739     
          15           2  0.40022159864851214        3.2702008065467747E-002   1.6811428922267841E-004   2.1547480248031934       0.95184174624783779     
          16           2  0.45071398682603692        3.1697569253835815E-002   5.5571014118879047E-002   2.7089756041227790        1.0682995463198881     
          17           2  0.56673576219350652        3.2814497609467586E-002   8.6730925265296910E-002   4.2279149336981856        1.3376122475007752     
          18           2  0.71415146294519305        3.1846013402029000E-002  0.13550896954277658        6.6056805325586545        1.6766283706307969     
          19           2  0.90229898173927481        2.7701136071659947E-002  0.21200254576108379        10.334462361190861        2.1043674904248300     
          20           2   1.1437461755045248        1.9107200143415281E-002  0.33221954487149719        16.194567740620371        2.6455545323578451     
          21           2   1.4556385455532317        4.8544328595832090E-003  0.52165083554695901        25.428547305682315        3.3325892950552207     
          22           2   1.8617174855104772       -1.5579719548539778E-002  0.82110062158705310        40.025391030176429        4.2083123900395449     
          23           2   2.3953922347850027       -4.0632881000335387E-002   1.2962869347119739        63.188438300640399        5.3299334625829067     
          24           2   2.7638670597421622       -5.6734279715041344E-002   1.6278324622542455        79.349618475500961        6.0313557636193229     
           1           3   19.166403408899630        7.3098046320274115       -60.313415317472412        157.59885493472802        15.127043205516081     
           2           3   13.485653009473777        5.0377951078414789       -43.829608281997231        114.52679148073010        12.085667423622496     
           3           3   8.7112227878721313        3.1692240862799110       -26.073613328774410        68.130540063809619        8.7769603779412417     
           4           3   5.7404092622196359        2.0226941164661105       -15.661655455803755        40.924189785271921        6.4360621770092479     
           5           3   3.8601355804857680        1.3107082999954118       -9.5010255033336275        24.826503349931269        4.7664140092752261     
           6           3   2.6486312237688310       0.86282460503817171       -5.8211529160220392        15.210995732165379        3.5650672748353087     
           7           3   1.8534894814861531       0.57719514666032112       -3.6014584813056478        9.4109088807202621        2.6926073482596213     
           8           3   1.3217287557775932       0.39241784454994311       -2.2491867258932623        5.8773848723022795        2.0528360193665227     
           9           3  0.95936149832073403       0.27111017973634144       -1.4171961884788544        3.7033520847107013        1.5790323774305026     
          10           3  0.78295589515850950       0.21046930026324162       -1.0399723844952879        2.8955151185220340        1.3546602347279346     
          11           3  0.71192254809577460       0.16721301612474157      -0.83171181307475162        2.8255101511375651        1.2907864177593662     
          12           3  0.65873011838982753       0.13109962998344515      -0.59080192658964037        2.7682881513763737        1.2387814719859671     
          13           3  0.62322495385999288       0.10052014590374572      -0.36796666831980235        2.7229365009476822        1.2013849838537944     
          14           3  0.60454285125664164        7.3708050750825066E-002 -0.15753929972098543        2.6937519551591151        1.1792977728957976     
          15           3  0.60000825815251502        4.8796054122364874E-002  -1.2444917218146982E-003   2.6599642711416518        1.1686465600661071     
          16           3  0.67349801256577146        4.7136216364139789E-002   6.5686303169164323E-002   3.3221523255950713        1.3073287807276595     
          17           3  0.84665013757474294        4.8780793065201430E-002  0.10246323369371663        5.1820908280634832        1.6364572137874085     
          18           3   1.0666017702140187        4.7334304532485688E-002  0.16000409828203629        8.0921159038190975        2.0506633954557816     
          19           3   1.3472586554821531        4.1192943441049033E-002  0.25019246740507722        12.653169392860287        2.5731348957224380     
          20           3   1.7073318553883972        2.8499514505109881E-002  0.39185844859456159        19.817485662823451        3.2340076454514777     
          21           3   2.1723395876765537        7.5197426988973613E-003  0.61497163230411767        31.100606679813112        4.0727612310354182     
          22           3   2.7776053122653424       -2.2408098747835489E-002  0.96748070884374493        48.927244920874436        5.1415830691587132     
          23           3   3.5728172871939616       -5.8758827624205909E-002   1.5265696385601537        77.200410865731214        6.5101432320133004     
          24           3   4.1217657420988001       -8.1385539724674411E-002   1.9165289590108427        96.920546483815301        7.3658504769584177     
           1           4   28.775882053176243        10.438125816783552       -70.625329979466571        193.92727190636680        18.486354079641583     
           2           4   20.246089981892020        7.1832077810750361       -51.329686886386646        140.94431765690501        14.770251823607156     
           3           4   13.077927399327050        4.5108511462642769       -30.544337590931598        83.870909623740602        10.727864680571470     
           4           4   8.6171571240277682        2.8726551146777557       -18.352154935277539        50.393030810915057        7.8674195027132532     
           5           4   5.7937584184124526        1.8566376235428621       -11.136098053402455        30.578804241615348        5.8269249840755570     
           6           4   3.9746318988182279        1.2185311670710710       -6.8246462527776037        18.740148860090777        4.3585858979693937     
           7           4   2.7808030323699162       0.81239234123283421       -4.2233379209338846        11.597265897047098        3.2921367590688284     
           8           4   1.9825329407124221       0.55026723107672193       -2.6382085377353626        7.2446469781277996        2.5100645467882128     
           9           4   1.4386574958968648       0.37864108030698268       -1.6627296338357014        4.5660374847609342        1.9308484013572038     
          10           4   1.1768343039063136       0.29344877118213120       -1.2235732123146830        3.5874882090222635        1.6608027332594062     
          11           4   1.0733946589829992       0.23450703207736615      -0.98282035712128302        3.5189170587283107        1.5884143655095773     
          12           4  0.99369644176274485       0.18491993419383068      -0.70012113938199227        3.4480271160579061        1.5263147141539160     
          13           4  0.94012108729048771       0.14306347748921602      -0.43787189341417415        3.3917038499984247        1.4814387924073604     
          14           4  0.91139272810915051       0.10647291448041003      -0.18976537797862375        3.3549233713622861        1.4546198487863999     
          15           4  0.90027993662293171        7.2282335580372739E-002  -3.3960140613404064E-003   3.2886731198855221        1.4359680000932322     
          16           4   1.0069742534294601        6.9507451673541776E-002   7.6947517911568161E-002   4.0780811035279987        1.6006734468118371     
          17           4   1.2654564144267140        7.1815164801934991E-002  0.11995091434254822        6.3570145975037109        2.0029880838154006     
          18           4   1.5936998810283898        6.9536828958140964E-002  0.18719036398560104        9.9202662823643699        2.5091351427238036     
          19           4   2.0124047947334018        6.0329116126065938E-002  0.29251236487386878        15.501525251662006        3.1473715111529401     
          20           4   2.5494141412878051        4.1509847705419059E-002  0.45784348444709438        24.262629272410212        3.9544091161728327     
          21           4   3.2426848289803454        1.0645078801233153E-002  0.71805931166185966        38.051522565399942        4.9783255278078666     
          22           4   4.1447339031452559       -3.2992297024630773E-002   1.1289211776236241        59.822781452265048        6.2826494643076112     
          23           4   5.3293963749041184       -8.5201716791638113E-002   1.7801292026060269        94.329127350146521        7.9521570530213319     
          24           4   6.1469033140302161      -0.11591441453740099        2.2341393844288553        118.38607957689385        8.9957459477532762     
           1           5   43.252965290365204        14.717481762468678       -81.695709202174342        238.95887852748245        22.596644494268627     
           2           5   30.431853224834505        10.099638888578571       -59.383750880918555        173.69698739257871        18.055053325010253     
           3           5   19.657971540721423        6.3211325730964587       -35.349229371841155        103.39673757494873        13.115377877362103     
           4           5   12.952124084378969        4.0093898095611484       -21.245926215983786        62.145003341292771        9.6193367287110103     
           5           5   8.7073147289992914        2.5791927254133258       -12.895922052367574        37.721442007190554        7.1250555345757691     
           6           5   5.9723270458450441        1.6836818535917601       -7.9054090880331511        23.124237293618222        5.3299561710032082     
           7           5   4.1775594206346724        1.1157603536590552       -4.8935254447427772        14.314428408416383        4.0260667810988284     
           8           5   2.9776155298695035       0.75074979119855612       -3.0577127683240017        8.9445772723810197        3.0698106464969914     
           9           5   2.1602215553831985       0.51289725413858978       -1.9276712421254223        5.6390883238323068        2.3615622996435075     
          10           5   1.7712072077535979       0.39549239973154932       -1.4223365690397582        4.4519182935337085        2.0366407189441245     
          11           5   1.6206304517637857       0.31813991190390711       -1.1475122487993765        4.3892962063057279        1.9555612920336101     
          12           5   1.5010865786743619       0.25276797694581377      -0.82001733699341239        4.3013794909042264        1.8818226953699431     
          13           5   1.4200246081942776       0.19794572731998877      -0.51517753323067306        4.2313194467994473        1.8282133847687665     
          14           5   1.3755626850335056       0.15030419642500450      -0.22614714596297583        4.1847907126023509        1.7957133400513041     
          15           5   1.3518902519419724       0.10551760940273829       -6.3716226846394410E-003   4.0714777986465149        1.7656943091336144     
          16           5   1.5066550760074664       0.10083264110256454        8.9054061960423453E-002   5.0119053806335234        1.9611011033178505     
          17           5   1.8926491454583378       0.10375202664494636       0.13871226502414963        7.8063483996052225        2.4530040590205457     
          18           5   2.3826252307222107        9.9858394802249395E-002  0.21629554866976738        12.172126294088308        3.0716109591848193     
          19           5   3.0073811475666830        8.5767859000746918E-002  0.33772343157061718        19.004921964924936        3.8513365396758550     
          20           5   3.8083208420560095        5.7683750928318261E-002  0.52818519205760428        29.721962064805378        4.8368731353670773     
          21           5   4.8418561514171206        1.2334010795334907E-002  0.82771351088613510        46.575559416445678        6.0867215405363089     
          22           5   6.1859884401081775       -5.0751456675741130E-002   1.3002623922222294        73.163812951286758        7.6781439660991513     
          23           5   7.9503031917750100      -0.12427320123949269        2.0486234139546244        115.26965878004012        9.7141866494935414     
          24           5   9.1670956258696954      -0.16292807889227134        2.5700496753225721        144.60684293909614        10.986328720001911     
           1           6   65.096681973602188        20.390404567279308       -92.924402106517732        294.92916771957726        27.630204099250804     
           2           6   45.801549218127782        13.924048043821001       -67.555873384063943        214.41340661940569        22.077630308836582     
           3           6   29.587953606486977        8.6642576606866673       -40.229967892918467        127.68537459408344        16.039630594979251     
           4           6   19.493890711716954        5.4576545703041148       -24.188324669684953        76.771779918155843        11.765330123073511     
           5           6   13.103451502602132        3.4824993420816179       -14.686957861348358        46.615893123479339        8.7152698578565300     
           6           6   8.9858453860246463        2.2522527072448670       -9.0062801306762790        28.586180403841741        6.5199028308976112     
           7           6   6.2839123757056372        1.4768677454490289       -5.5767414810569482        17.701169832459453        4.9251340775198953     
           8           6   4.4777002534399735       0.98208871281085042       -3.4857185907615009        11.064372245093971        3.7554877233732014     
           9           6   3.2475704137546550       0.66231722636953405       -2.1982048186056131        6.9777874804587467        2.8891694748908052     
          10           6   2.6679587234047104       0.50473714081827603       -1.6250990153291840        5.5306741047781971        2.4973763437848526     
          11           6   2.4481586969345810       0.40881535580765505       -1.3160250915490368        5.4764847040368299        2.4070001024035292     
          12           6   2.2688531876779350       0.32807596642899839      -0.94353750907853551        5.3672119232588980        2.3199876052883885     
          13           6   2.1461056246804273       0.26130041449946878      -0.59549301196322002        5.2800084671719425        2.2563316923170116     
          14           6   2.0771430708575020       0.20399198473858363      -0.26466593987847642        5.2212147532165618        2.2171659705623998     
          15           6   2.0313190922462590       0.14982260221496732       -1.0012000276312617E-002   5.0449175992044042        2.1721939388833253     
          16           6   2.2563893927760565       0.14184701029443769       0.10135493093410881        6.1682573776260856        2.4045984535900269     
          17           6   2.8330543275523450       0.14462845143456107       0.15771759630905777        9.5979089738016121        3.0062310159261503     
          18           6   3.5646925905355107       0.13725862897033456       0.24568952259470581        14.950781560697491        3.7624467543179962     
          19           6   4.4970906628989198       0.11494808985409297       0.38324174548298556        23.320139969815251        4.7151275189010287     
          20           6   5.6917592176838694        7.2511028361173235E-002  0.59878115394503173        36.434092885875479        5.9186298587572548     
          21           6   7.2324385680917436        5.9124436046736608E-003  0.93740782821319302        57.036181846262295        7.4440586776018360     
          22           6   9.2348144035512814       -8.4092229704681429E-002   1.4710949447394499        89.504592491450921        9.3852568326652950     
          23           6   11.861254460019602      -0.18415210656133671        2.3153969929408640        140.86830891004936        11.867290638730092     
          24           6   13.670864799454048      -0.22487587740507364        2.9031743563039263        176.62555084740416        13.417006845561849     
           1           7   98.108063344479049        27.546344890708578       -103.18411431920785        364.71682004426964        33.802781560933269     
           2           7   69.026162478371759        18.667536970865566       -75.027520347272969        265.19447554409419        27.010483339781775     
           3           7   44.591713327969352        11.510037716038550       -44.700725132471085        158.00151608501855        19.626454406158352     
           4           7   29.375806970074542        7.1705934270371854       -26.888125684022061        95.041182299908868        14.397960170721520     
           5           7   19.741618233354032        4.5158235801119462       -16.332859780578495        57.732485043731010        10.666254628565842     
           6           7   13.533956010268417        2.8758522474133690       -10.019391180423689        35.416722672240631        7.9798589981739818     
           7           7   9.4610248372051249        1.8523284548973116       -6.2063477818657491        21.938884698707366        6.0282054200988346     
           8           7   6.7389090203607172        1.2067075638723148       -3.8806650126648630        13.718237770545219        4.5967334098840977     
           9           7   4.8855590010884740       0.79502047709839951       -2.4481761534487649        8.6546756895782977        3.5364697932690894     
          10           7   4.0170500462539707       0.59092215485393274       -1.8102783991220992        6.8726300619764924        3.0608831845165771     
          11           7   3.6934440925493521       0.48142204681687017       -1.4687824221608554        6.8201542850269155        2.9585774602603911     
          12           7   3.4250460879175910       0.39148775319284390       -1.0562889962891340        6.6832229324987269        2.8563364000779869     
          13           7   3.2397707197164145       0.31941675119554491      -0.66938610091504069        6.5744516772538795        2.7812320150344263     
          14           7   3.1335238494817341       0.25933515284175890      -0.30062329756036665        6.5007473937351516        2.7345451167967045     
          15           7   3.0524983326627213       0.20246003123073186       -1.3699926249506444E-002   6.2499333787153120        2.6721735029176741     
          16           7   3.3825691126563360       0.18881384248215738       0.11261513364107741        7.6031677406742846        2.9509420360906375     
          17           7   4.2444562209926637       0.18880267020768968       0.17503011933566864        11.816362185344360        3.6870005426471777     
          18           7   5.3372657509897250       0.17359751976978391       0.27233186616139182        18.384195419144106        4.6115973972736288     
          19           7   6.7290032053645010       0.13664119653823170       0.42428832754045454        28.640647431463293        5.7756513259276376     
          20           7   8.5109436450849429        7.1290516610017590E-002  0.66210793931235590        44.691667344995288        7.2451957718192261     
          21           7   10.807219560852984       -2.6532672811852370E-002   1.0352749171264051        69.876340971445103        9.1065381006000283     
          22           7   13.789117337771108      -0.15235228874506318        1.6226544566653480        109.51613546732455        11.473481574743959     
          23           7   17.696730515536515      -0.28057949718953551        2.5506923754921642        172.14264522143696        14.497546433364755     
          24           7   20.385388522520163      -0.30237388797733816        3.1960515883948011        215.69228761048927        16.383864616482278     
           1           8   148.06370878037555        35.811540451093968       -110.47609867672881        451.99539777024501        41.384920298185769     
           2           8   104.15892764833961        24.027188884768513       -80.350458255864069        328.74175496420673        33.071770428424259     
           3           8   67.281470832689081        14.632108028470725       -47.902464230536062        195.98681969517429        24.036515897048467     
           4           8   44.312120985154948        8.9756929128874159       -28.830889234725223        117.95901863485417        17.636528293492994     
           5           8   29.767984117427289        5.5458387696282019       -17.522497716937391        71.692725875370982        13.067352365941604     
           6           8   20.397644089626276        3.4503798814928777       -10.754684875623891        44.003252158908317        9.7773125905960470     
           7           8   14.251159026494067        2.1602239790537565       -6.6650904544321170        27.271136623906884        7.3867023976862001     
           8           8   10.144728595121929        1.3597369576940987       -4.1695138557467271        17.060618485912979        5.6330610879656682     
           9           8   7.3502021100191275       0.85936587745825810       -2.6316700948628933        10.768492711660677        4.3340751287249777     
          10           8   6.0363323384863437       0.60708114056208007       -1.9407299223752850        8.5358880119606351        3.7492712629352818     
          11           8   5.5511525669320401       0.49511404204009418       -1.5722290243635098        8.4555278222250045        3.6270685336816304     
          12           8   5.1504635402935399       0.40951014456172707       -1.1331863162314255        8.2796312540997530        3.5063284197721956     
          13           8   4.8726574512661172       0.34617343247847515      -0.72018941232321587        8.1421682428953339        3.4177647808788492     
          14           8   4.7116030312594264       0.29750095765378354      -0.32561928249225164        8.0504584758476554        3.3627843454334605     
          15           8   4.5822427841710907       0.25221116540247646       -1.6333390325688070E-002   7.7284854964527350        3.2840341858095030     
          16           8   5.0740057271200252       0.22886749154865085       0.12061656005286363        9.3850478145048832        3.6239194534601586     
          17           8   6.3622676551857351       0.21932923917765368       0.18719620600805512        14.564436955584657        4.5245048112644097     
          18           8   7.9944670682382641       0.18695354806314324       0.29084052236088476        22.626669324410827        5.6549208088109024     
          19           8   10.071519431636750       0.12321207856286918       0.45246674479323218        35.198315538478610        7.0770053510508637     
          20           8   12.728730392314766        2.0523935521425729E-002  0.70504823264248151        54.843368119172894        8.8708806167782139     
          21           8   16.149899706604376      -0.12306484067859547        1.1007878435514817        85.620901779724093        11.141168027444767     
          22           8   20.588316229631257      -0.29375847962854346        1.7227525281227416        133.98957615464860        14.025677092569525     
          23           8   26.398502526351631      -0.44133446574899632        2.7039080180092907        210.28725508452874        17.707688109389110     
          24           8   30.390793468268235      -0.39079640887154732        3.3853668467461597        263.27818295214917        20.002129666556407     