 TITLE = "Projeto1" 
 VARIABLES = "E_1" "E_2" "E_3" "E_4" 
 ZONE I =           24  J =          13  DATAPACKING = POINT
    0.0000000000E+00    1.0469327120E+06  423.4328416866E+03    0.0000000000E+00
  562.9840944050E+00  746.8093893630E+03  274.6937184747E+03   48.0579038236E+06
                 NaN                 NaN                 NaN                 NaN
                 NaN                 NaN                 NaN                 NaN
                 NaN                 NaN                 NaN                 NaN
                 NaN                 NaN                 NaN                 NaN
                 NaN                 NaN                 NaN                 NaN
                 NaN                 NaN                 NaN                 NaN
                 NaN                 NaN                 NaN                 NaN
                 NaN                 NaN                 NaN                 NaN
                 NaN                 NaN                 NaN                 NaN
                 NaN                 NaN                 NaN                 NaN
                 NaN                 NaN                 NaN                 NaN
                 NaN                 NaN                 NaN                 NaN
                 NaN                 NaN                 NaN                 NaN
                 NaN                 NaN                 NaN                 NaN
                 NaN                 NaN                 NaN                 NaN
                 NaN                 NaN                 NaN                 NaN
                 NaN                 NaN                 NaN                 NaN
                 NaN                 NaN                 NaN                 NaN
                 NaN                 NaN                 NaN                 NaN
                 NaN                 NaN                 NaN                 NaN
                 NaN                 NaN                 NaN                 NaN
    0.0000000000E+00   75.7065026514E+03   -1.5860737635E+03    0.0000000000E+00
    0.0000000000E+00    1.2952793932E+06  514.0009379758E+03    0.0000000000E+00
  724.8471268815E+00  924.4635952719E+03  332.1123681443E+03  242.7656835569E+06
                 NaN                 NaN                 NaN                 NaN
                 NaN                 NaN                 NaN                 NaN
                 NaN                 NaN                 NaN                 NaN
                 NaN                 NaN                 NaN                 NaN
                 NaN                 NaN                 NaN                 NaN
                 NaN                 NaN                 NaN                 NaN
                 NaN                 NaN                 NaN                 NaN
                 NaN                 NaN                 NaN                 NaN
                 NaN                 NaN                 NaN                 NaN
                 NaN                 NaN                 NaN                 NaN
                 NaN                 NaN                 NaN                 NaN
                 NaN                 NaN                 NaN                 NaN
                 NaN                 NaN                 NaN                 NaN
                 NaN                 NaN                 NaN                 NaN
                 NaN                 NaN                 NaN                 NaN
                 NaN                 NaN                 NaN                 NaN
                 NaN                 NaN                 NaN                 NaN
                 NaN                 NaN                 NaN                 NaN
                 NaN                 NaN                 NaN                 NaN
                 NaN                 NaN                 NaN                 NaN
                 NaN                 NaN                 NaN                 NaN
                 NaN                 NaN                 NaN                 NaN
    0.0000000000E+00    1.9427066495E+06  740.9217975023E+03    0.0000000000E+00
                 NaN                 NaN                 NaN                 NaN
                 NaN                 NaN                 NaN                 NaN
                 NaN                 NaN                 NaN                 NaN
                 NaN                 NaN                 NaN                 NaN
                 NaN                 NaN                 NaN                 NaN
                 NaN                 NaN                 NaN                 NaN
                 NaN                 NaN                 NaN                 NaN
                 NaN                 NaN                 NaN                 NaN
                 NaN                 NaN                 NaN                 NaN
                 NaN                 NaN                 NaN                 NaN
                 NaN                 NaN                 NaN                 NaN
                 NaN                 NaN                 NaN                 NaN
                 NaN                 NaN                 NaN                 NaN
                 NaN                 NaN                 NaN                 NaN
                 NaN                 NaN                 NaN                 NaN
                 NaN                 NaN                 NaN                 NaN
                 NaN                 NaN                 NaN                 NaN
                 NaN                 NaN                 NaN                 NaN
                 NaN                 NaN                 NaN                 NaN
                 NaN                 NaN                 NaN                 NaN
                 NaN                 NaN                 NaN                 NaN
                 NaN                 NaN                 NaN                 NaN
                 NaN                 NaN                 NaN                 NaN
    0.0000000000E+00    2.9167234049E+06    1.0580084328E+06    0.0000000000E+00
    2.3093303189E+03    2.0867093321E+06  669.7648637757E+03  684.1404437550E+06
                 NaN                 NaN                 NaN                 NaN
                 NaN                 NaN                 NaN                 NaN
                 NaN                 NaN                 NaN                 NaN
                 NaN                 NaN                 NaN                 NaN
                 NaN                 NaN                 NaN                 NaN
                 NaN                 NaN                 NaN                 NaN
                 NaN                 NaN                 NaN                 NaN
                 NaN                 NaN                 NaN                 NaN
                 NaN                 NaN                 NaN                 NaN
                 NaN                 NaN                 NaN                 NaN
                 NaN                 NaN                 NaN                 NaN
                 NaN                 NaN                 NaN                 NaN
                 NaN                 NaN                 NaN                 NaN
                 NaN                 NaN                 NaN                 NaN
                 NaN                 NaN                 NaN                 NaN
                 NaN                 NaN                 NaN                 NaN
                 NaN                 NaN                 NaN                 NaN
                 NaN                 NaN                 NaN                 NaN
                 NaN                 NaN                 NaN                 NaN
                 NaN                 NaN                 NaN                 NaN
                 NaN                 NaN                 NaN                 NaN
                 NaN                 NaN                 NaN                 NaN
    0.0000000000E+00    4.3841205618E+06    1.4917639514E+06    0.0000000000E+00
    4.1905255885E+03    3.1389324298E+06  935.5866399192E+03    1.2409936862E+09
                 NaN                 NaN                 NaN                 NaN
                 NaN                 NaN                 NaN                 NaN
                 NaN                 NaN                 NaN                 NaN
                 NaN                 NaN                 NaN                 NaN
                 NaN                 NaN                 NaN                 NaN
                 NaN                 NaN                 NaN                 NaN
                 NaN                 NaN                 NaN                 NaN
                 NaN                 NaN                 NaN                 NaN
                 NaN                 NaN                 NaN                 NaN
                 NaN                 NaN                 NaN                 NaN
                 NaN                 NaN                 NaN                 NaN
                 NaN                 NaN                 NaN                 NaN
                 NaN                 NaN                 NaN                 NaN
                 NaN                 NaN                 NaN                 NaN
                 NaN                 NaN                 NaN                 NaN
                 NaN                 NaN                 NaN                 NaN
                 NaN                 NaN                 NaN                 NaN
                 NaN                 NaN                 NaN                 NaN
                 NaN                 NaN                 NaN                 NaN
                 NaN                 NaN                 NaN                 NaN
                 NaN                 NaN                 NaN                 NaN
                 NaN                 NaN                 NaN                 NaN
    0.0000000000E+00    6.5981996848E+06    2.0667714069E+06    0.0000000000E+00
    7.5882828393E+03    4.7280432941E+06    1.2787858650E+06    2.2473305799E+09
    6.9810557997E+03    3.1158457248E+06  730.4205557392E+03    1.9181211448E+09
                 NaN                 NaN                 NaN                 NaN
                 NaN                 NaN                 NaN                 NaN
                 NaN                 NaN                 NaN                 NaN
                 NaN                 NaN                 NaN                 NaN
                 NaN                 NaN                 NaN                 NaN
                 NaN                 NaN                 NaN                 NaN
                 NaN                 NaN                 NaN                 NaN
                 NaN                 NaN                 NaN                 NaN
                 NaN                 NaN                 NaN                 NaN
                 NaN                 NaN                 NaN                 NaN
                 NaN                 NaN                 NaN                 NaN
                 NaN                 NaN                 NaN                 NaN
                 NaN                 NaN                 NaN                 NaN
                 NaN                 NaN                 NaN                 NaN
                 NaN                 NaN                 NaN                 NaN
                 NaN                 NaN                 NaN                 NaN
                 NaN                 NaN                 NaN                 NaN
                 NaN                 NaN                 NaN                 NaN
                 NaN                 NaN                 NaN                 NaN
                 NaN                 NaN                 NaN                 NaN
                 NaN                 NaN                 NaN                 NaN
    0.0000000000E+00    9.9442333006E+06    2.7920975181E+06    0.0000000000E+00
   13.7489608749E+03    7.1320317054E+06    1.6923432642E+06    4.0719939696E+09
   12.5633371680E+03    4.7110105763E+06  941.3308947756E+03    3.5212440094E+09
                 NaN                 NaN                 NaN                 NaN
                 NaN                 NaN                 NaN                 NaN
                 NaN                 NaN                 NaN                 NaN
                 NaN                 NaN                 NaN                 NaN
                 NaN                 NaN                 NaN                 NaN
                 NaN                 NaN                 NaN                 NaN
                 NaN                 NaN                 NaN                 NaN
                 NaN                 NaN                 NaN                 NaN
                 NaN                 NaN                 NaN                 NaN
                 NaN                 NaN                 NaN                 NaN
                 NaN                 NaN                 NaN                 NaN
                 NaN                 NaN                 NaN                 NaN
                 NaN                 NaN                 NaN                 NaN
                 NaN                 NaN                 NaN                 NaN
                 NaN                 NaN                 NaN                 NaN
                 NaN                 NaN                 NaN                 NaN
                 NaN                 NaN                 NaN                 NaN
                 NaN                 NaN                 NaN                 NaN
                 NaN                 NaN                 NaN                 NaN
                 NaN                 NaN                 NaN                 NaN
                 NaN                 NaN                 NaN                 NaN
    0.0000000000E+00   15.0077375220E+06    3.6298577401E+06    0.0000000000E+00
   24.8767292951E+03   10.7729433277E+06    2.1337661900E+06    7.3678530943E+09
   22.6170290215E+03    7.1330632453E+06    1.1393355960E+06    6.4322260442E+09
   16.3405366676E+03    4.7914385068E+06  595.0796084966E+03    4.4164608718E+09
   12.2258212215E+03    3.2982234577E+06  282.1611338098E+03    2.9656819665E+09
                 NaN                 NaN                 NaN                 NaN
                 NaN                 NaN                 NaN                 NaN
                 NaN                 NaN                 NaN                 NaN
                 NaN                 NaN                 NaN                 NaN
                 NaN                 NaN                 NaN                 NaN
                 NaN                 NaN                 NaN                 NaN
                 NaN                 NaN                 NaN                 NaN
                 NaN                 NaN                 NaN                 NaN
                 NaN                 NaN                 NaN                 NaN
                 NaN                 NaN                 NaN                 NaN
                 NaN                 NaN                 NaN                 NaN
                 NaN                 NaN                 NaN                 NaN
                 NaN                 NaN                 NaN                 NaN
                 NaN                 NaN                 NaN                 NaN
                 NaN                 NaN                 NaN                 NaN
                 NaN                 NaN                 NaN                 NaN
                 NaN                 NaN                 NaN                 NaN
                 NaN                 NaN                 NaN                 NaN
                 NaN                 NaN                 NaN                 NaN
    0.0000000000E+00   22.6715956028E+06    4.4268962293E+06    0.0000000000E+00
   44.8502198441E+03   16.2892827723E+06    2.4858196072E+06   13.2837188353E+09
   40.5758168210E+03   10.8127724958E+06    1.2435784433E+06   11.6641673213E+09
   29.1267567853E+03    7.2771381269E+06  580.7311602773E+03    8.0606276400E+09
   21.5284768245E+03    5.0247994276E+06  204.5610082256E+03    5.4909044908E+09
                 NaN                 NaN                 NaN                 NaN
                 NaN                 NaN                 NaN                 NaN
                 NaN                 NaN                 NaN                 NaN
                 NaN                 NaN                 NaN                 NaN
                 NaN                 NaN                 NaN                 NaN
                 NaN                 NaN                 NaN                 NaN
                 NaN                 NaN                 NaN                 NaN
                 NaN                 NaN                 NaN                 NaN
                 NaN                 NaN                 NaN                 NaN
                 NaN                 NaN                 NaN                 NaN
                 NaN                 NaN                 NaN                 NaN
                 NaN                 NaN                 NaN                 NaN
                 NaN                 NaN                 NaN                 NaN
                 NaN                 NaN                 NaN                 NaN
                 NaN                 NaN                 NaN                 NaN
                 NaN                 NaN                 NaN                 NaN
                 NaN                 NaN                 NaN                 NaN
                 NaN                 NaN                 NaN                 NaN
                 NaN                 NaN                 NaN                 NaN
    0.0000000000E+00   34.2386229591E+06    4.7735593173E+06    0.0000000000E+00
   79.4539143674E+03   24.6290665068E+06    2.4835954638E+06   23.5328732315E+09
   71.1190493781E+03   16.3906497774E+06    1.1037782564E+06   20.6056378055E+09
   50.3610408334E+03   11.0479412356E+06  400.4887800867E+03   14.1838067220E+09
   36.4785033145E+03    7.6438143635E+06   10.2989256474E+03    9.6626625693E+09
   27.5941499725E+03    5.4236343393E+06 -184.9708942109E+03    6.4428069084E+09
   22.2533126866E+03    3.9233553677E+06 -251.9153252215E+03    4.0705837014E+09
                 NaN                 NaN                 NaN                 NaN
                 NaN                 NaN                 NaN                 NaN
                 NaN                 NaN                 NaN                 NaN
                 NaN                 NaN                 NaN                 NaN
                 NaN                 NaN                 NaN                 NaN
                 NaN                 NaN                 NaN                 NaN
                 NaN                 NaN                 NaN                 NaN
                 NaN                 NaN                 NaN                 NaN
                 NaN                 NaN                 NaN                 NaN
                 NaN                 NaN                 NaN                 NaN
                 NaN                 NaN                 NaN                 NaN
                 NaN                 NaN                 NaN                 NaN
                 NaN                 NaN                 NaN                 NaN
                 NaN                 NaN                 NaN                 NaN
                 NaN                 NaN                 NaN                 NaN
                 NaN                 NaN                 NaN                 NaN
                 NaN                 NaN                 NaN                 NaN
    0.0000000000E+00   51.5511673498E+06    3.7288647745E+06    0.0000000000E+00
  144.3415270135E+03   37.1975722618E+06    1.8142980774E+06   42.7516904830E+09
  127.1135492209E+03   24.8654105445E+06  718.9623209854E+03   37.0400455134E+09
   88.7620282954E+03   16.8113241737E+06  175.4633549666E+03   25.3233566102E+09
   63.0366495818E+03   11.6705431956E+06 -125.8528594613E+03   17.1749420615E+09
   46.4941039963E+03    8.3187010599E+06 -274.0016152026E+03   11.5195940353E+09
   36.5803544437E+03    6.0704179536E+06 -324.3932373168E+03    7.4881426406E+09
                 NaN                 NaN                 NaN                 NaN
                 NaN                 NaN                 NaN                 NaN
                 NaN                 NaN                 NaN                 NaN
                 NaN                 NaN                 NaN                 NaN
                 NaN                 NaN                 NaN                 NaN
                 NaN                 NaN                 NaN                 NaN
                 NaN                 NaN                 NaN                 NaN
                 NaN                 NaN                 NaN                 NaN
                 NaN                 NaN                 NaN                 NaN
                 NaN                 NaN                 NaN                 NaN
                 NaN                 NaN                 NaN                 NaN
                 NaN                 NaN                 NaN                 NaN
                 NaN                 NaN                 NaN                 NaN
                 NaN                 NaN                 NaN                 NaN
                 NaN                 NaN                 NaN                 NaN
                 NaN                 NaN                 NaN                 NaN
                 NaN                 NaN                 NaN                 NaN
    0.0000000000E+00   62.4745913692E+06    0.0000000000E+00    0.0000000000E+00
  186.9396934585E+03   45.1351814043E+06 -310.9361929087E+03   55.3083796833E+09
  162.9488206047E+03   30.2525015204E+06 -371.9739707774E+03   48.2298761363E+09
  112.1426149130E+03   20.5061380695E+06 -350.6474540502E+03   33.2216100333E+09
   77.6499820620E+03   14.2998253943E+06 -331.6739508179E+03   23.0806075862E+09
   55.2103777764E+03   10.3168539637E+06 -320.5290816480E+03   16.5767378109E+09
   39.4605947665E+03    7.6435970776E+06 -296.2772591698E+03   12.1422851025E+09
   28.3539359558E+03    5.7579864012E+06 -248.7295072441E+03    9.0825540860E+09
   20.5822314157E+03    4.3290392640E+06 -198.8223884070E+03    6.8299855795E+09
                 NaN                 NaN                 NaN                 NaN
                 NaN                 NaN                 NaN                 NaN
                 NaN                 NaN                 NaN                 NaN
                 NaN                 NaN                 NaN                 NaN
                 NaN                 NaN                 NaN                 NaN
                 NaN                 NaN                 NaN                 NaN
                 NaN                 NaN                 NaN                 NaN
                 NaN                 NaN                 NaN                 NaN
                 NaN                 NaN                 NaN                 NaN
                 NaN                 NaN                 NaN                 NaN
                 NaN                 NaN                 NaN                 NaN
                 NaN                 NaN                 NaN                 NaN
                 NaN                 NaN                 NaN                 NaN
   14.7971352128E+03   10.7411855014E+06  -49.6736174525E+03    4.4006327402E+09
   16.9571513635E+03    4.1455742655E+06  -56.9247383228E+03  648.2370451338E+06
    0.0000000000E+00   62.4744515088E+06   -2.4814939653E+06    0.0000000000E+00
  179.4032174328E+03   45.1307202705E+06 -872.6663077531E+03   54.7263795519E+09
  156.6903889454E+03   30.1891768579E+06  -99.8509536701E+03   46.9960702627E+09
  109.1426373913E+03   20.4187859861E+06  237.3639044740E+03   32.0392932021E+09
   77.3190721486E+03   14.1776981508E+06  414.6800392055E+03   21.6740021383E+09
   56.8896945103E+03   10.1055684430E+06  483.7543069767E+03   14.4955940308E+09
   44.6561712423E+03    7.3725129707E+06  479.5658916750E+03    9.3894494155E+09
                 NaN                 NaN                 NaN                 NaN
                 NaN                 NaN                 NaN                 NaN
                 NaN                 NaN                 NaN                 NaN
                 NaN                 NaN                 NaN                 NaN
                 NaN                 NaN                 NaN                 NaN
                 NaN                 NaN                 NaN                 NaN
                 NaN                 NaN                 NaN                 NaN
                 NaN                 NaN                 NaN                 NaN
                 NaN                 NaN                 NaN                 NaN
                 NaN                 NaN                 NaN                 NaN
                 NaN                 NaN                 NaN                 NaN
                 NaN                 NaN                 NaN                 NaN
                 NaN                 NaN                 NaN                 NaN
                 NaN                 NaN                 NaN                 NaN
                 NaN                 NaN                 NaN                 NaN
                 NaN                 NaN                 NaN                 NaN
    0.0000000000E+00    4.0973007439E+06    8.8149817454E+03    0.0000000000E+00
