 TITLE = "Projeto1" 
 VARIABLES = "E_1" "E_2" "E_3" "E_4" 
 ZONE I =           24  J =          13  DATAPACKING = POINT
    0.0000000000E+00    1.0469327120E+06  423.4328416866E+03    0.0000000000E+00
  926.3185394188E+00  760.4651380063E+03  251.0067422683E+03   67.9841519495E+06
                 NaN                 NaN                 NaN                 NaN
                 NaN                 NaN                 NaN                 NaN
                 NaN                 NaN                 NaN                 NaN
                 NaN                 NaN                 NaN                 NaN
                 NaN                 NaN                 NaN                 NaN
                 NaN                 NaN                 NaN                 NaN
                 NaN                 NaN                 NaN                 NaN
                 NaN                 NaN                 NaN                 NaN
                 NaN                 NaN                 NaN                 NaN
                 NaN                 NaN                 NaN                 NaN
                 NaN                 NaN                 NaN                 NaN
                 NaN                 NaN                 NaN                 NaN
                 NaN                 NaN                 NaN                 NaN
                 NaN                 NaN                 NaN                 NaN
                 NaN                 NaN                 NaN                 NaN
                 NaN                 NaN                 NaN                 NaN
                 NaN                 NaN                 NaN                 NaN
                 NaN                 NaN                 NaN                 NaN
                 NaN                 NaN                 NaN                 NaN
                 NaN                 NaN                 NaN                 NaN
                 NaN                 NaN                 NaN                 NaN
    0.0000000000E+00   75.7065026514E+03   -1.5860737635E+03    0.0000000000E+00
    0.0000000000E+00    1.2952793932E+06  514.0009379758E+03    0.0000000000E+00
    1.1934104868E+03  942.0651709921E+03  301.5811725231E+03  454.2433190076E+06
                 NaN                 NaN                 NaN                 NaN
                 NaN                 NaN                 NaN                 NaN
                 NaN                 NaN                 NaN                 NaN
                 NaN                 NaN                 NaN                 NaN
                 NaN                 NaN                 NaN                 NaN
                 NaN                 NaN                 NaN                 NaN
                 NaN                 NaN                 NaN                 NaN
                 NaN                 NaN                 NaN                 NaN
                 NaN                 NaN                 NaN                 NaN
                 NaN                 NaN                 NaN                 NaN
                 NaN                 NaN                 NaN                 NaN
                 NaN                 NaN                 NaN                 NaN
                 NaN                 NaN                 NaN                 NaN
                 NaN                 NaN                 NaN                 NaN
                 NaN                 NaN                 NaN                 NaN
                 NaN                 NaN                 NaN                 NaN
                 NaN                 NaN                 NaN                 NaN
                 NaN                 NaN                 NaN                 NaN
                 NaN                 NaN                 NaN                 NaN
                 NaN                 NaN                 NaN                 NaN
                 NaN                 NaN                 NaN                 NaN
                 NaN                 NaN                 NaN                 NaN
    0.0000000000E+00    1.9427066495E+06  740.9217975023E+03    0.0000000000E+00
                 NaN                 NaN                 NaN                 NaN
                 NaN                 NaN                 NaN                 NaN
                 NaN                 NaN                 NaN                 NaN
                 NaN                 NaN                 NaN                 NaN
                 NaN                 NaN                 NaN                 NaN
                 NaN                 NaN                 NaN                 NaN
                 NaN                 NaN                 NaN                 NaN
                 NaN                 NaN                 NaN                 NaN
                 NaN                 NaN                 NaN                 NaN
                 NaN                 NaN                 NaN                 NaN
                 NaN                 NaN                 NaN                 NaN
                 NaN                 NaN                 NaN                 NaN
                 NaN                 NaN                 NaN                 NaN
                 NaN                 NaN                 NaN                 NaN
                 NaN                 NaN                 NaN                 NaN
                 NaN                 NaN                 NaN                 NaN
                 NaN                 NaN                 NaN                 NaN
                 NaN                 NaN                 NaN                 NaN
                 NaN                 NaN                 NaN                 NaN
                 NaN                 NaN                 NaN                 NaN
                 NaN                 NaN                 NaN                 NaN
                 NaN                 NaN                 NaN                 NaN
                 NaN                 NaN                 NaN                 NaN
    0.0000000000E+00    2.9167234049E+06    1.0580084328E+06    0.0000000000E+00
    3.5835865831E+03    2.1274344608E+06  602.7094600242E+03    1.0670053292E+09
                 NaN                 NaN                 NaN                 NaN
                 NaN                 NaN                 NaN                 NaN
                 NaN                 NaN                 NaN                 NaN
                 NaN                 NaN                 NaN                 NaN
                 NaN                 NaN                 NaN                 NaN
                 NaN                 NaN                 NaN                 NaN
                 NaN                 NaN                 NaN                 NaN
                 NaN                 NaN                 NaN                 NaN
                 NaN                 NaN                 NaN                 NaN
                 NaN                 NaN                 NaN                 NaN
                 NaN                 NaN                 NaN                 NaN
                 NaN                 NaN                 NaN                 NaN
                 NaN                 NaN                 NaN                 NaN
                 NaN                 NaN                 NaN                 NaN
                 NaN                 NaN                 NaN                 NaN
                 NaN                 NaN                 NaN                 NaN
                 NaN                 NaN                 NaN                 NaN
                 NaN                 NaN                 NaN                 NaN
                 NaN                 NaN                 NaN                 NaN
                 NaN                 NaN                 NaN                 NaN
                 NaN                 NaN                 NaN                 NaN
                 NaN                 NaN                 NaN                 NaN
    0.0000000000E+00    4.3841205618E+06    1.4917639514E+06    0.0000000000E+00
    6.5274611286E+03    3.2053003293E+06  829.8616132195E+03    1.9331413356E+09
                 NaN                 NaN                 NaN                 NaN
                 NaN                 NaN                 NaN                 NaN
                 NaN                 NaN                 NaN                 NaN
                 NaN                 NaN                 NaN                 NaN
                 NaN                 NaN                 NaN                 NaN
                 NaN                 NaN                 NaN                 NaN
                 NaN                 NaN                 NaN                 NaN
                 NaN                 NaN                 NaN                 NaN
                 NaN                 NaN                 NaN                 NaN
                 NaN                 NaN                 NaN                 NaN
                 NaN                 NaN                 NaN                 NaN
                 NaN                 NaN                 NaN                 NaN
                 NaN                 NaN                 NaN                 NaN
                 NaN                 NaN                 NaN                 NaN
                 NaN                 NaN                 NaN                 NaN
                 NaN                 NaN                 NaN                 NaN
                 NaN                 NaN                 NaN                 NaN
                 NaN                 NaN                 NaN                 NaN
                 NaN                 NaN                 NaN                 NaN
                 NaN                 NaN                 NaN                 NaN
                 NaN                 NaN                 NaN                 NaN
                 NaN                 NaN                 NaN                 NaN
    0.0000000000E+00    6.5981996848E+06    2.0667714069E+06    0.0000000000E+00
   11.7087847353E+03    4.8327204007E+06    1.1191803202E+06    3.4686940295E+09
   10.9719696590E+03    3.2652061908E+06  545.5563556799E+03    3.1228105973E+09
                 NaN                 NaN                 NaN                 NaN
                 NaN                 NaN                 NaN                 NaN
                 NaN                 NaN                 NaN                 NaN
                 NaN                 NaN                 NaN                 NaN
                 NaN                 NaN                 NaN                 NaN
                 NaN                 NaN                 NaN                 NaN
                 NaN                 NaN                 NaN                 NaN
                 NaN                 NaN                 NaN                 NaN
                 NaN                 NaN                 NaN                 NaN
                 NaN                 NaN                 NaN                 NaN
                 NaN                 NaN                 NaN                 NaN
                 NaN                 NaN                 NaN                 NaN
                 NaN                 NaN                 NaN                 NaN
                 NaN                 NaN                 NaN                 NaN
                 NaN                 NaN                 NaN                 NaN
                 NaN                 NaN                 NaN                 NaN
                 NaN                 NaN                 NaN                 NaN
                 NaN                 NaN                 NaN                 NaN
                 NaN                 NaN                 NaN                 NaN
                 NaN                 NaN                 NaN                 NaN
                 NaN                 NaN                 NaN                 NaN
    0.0000000000E+00    9.9442333006E+06    2.7920975181E+06    0.0000000000E+00
   21.0649092217E+03    7.2983455288E+06    1.4501312893E+06    6.2402738031E+09
   19.6470340557E+03    4.9537344508E+06  660.0850868655E+03    5.6491598804E+09
                 NaN                 NaN                 NaN                 NaN
                 NaN                 NaN                 NaN                 NaN
                 NaN                 NaN                 NaN                 NaN
                 NaN                 NaN                 NaN                 NaN
                 NaN                 NaN                 NaN                 NaN
                 NaN                 NaN                 NaN                 NaN
                 NaN                 NaN                 NaN                 NaN
                 NaN                 NaN                 NaN                 NaN
                 NaN                 NaN                 NaN                 NaN
                 NaN                 NaN                 NaN                 NaN
                 NaN                 NaN                 NaN                 NaN
                 NaN                 NaN                 NaN                 NaN
                 NaN                 NaN                 NaN                 NaN
                 NaN                 NaN                 NaN                 NaN
                 NaN                 NaN                 NaN                 NaN
                 NaN                 NaN                 NaN                 NaN
                 NaN                 NaN                 NaN                 NaN
                 NaN                 NaN                 NaN                 NaN
                 NaN                 NaN                 NaN                 NaN
                 NaN                 NaN                 NaN                 NaN
                 NaN                 NaN                 NaN                 NaN
    0.0000000000E+00   15.0077375220E+06    3.6298577401E+06    0.0000000000E+00
   37.8333008050E+03   11.0372585199E+06    1.7666861190E+06   11.2076088356E+09
   35.1596719655E+03    7.5276014079E+06  711.4590880883E+03   10.1873902532E+09
   25.8863325190E+03    5.1797718744E+06  195.0982312289E+03    7.3049074899E+09
   19.5029069804E+03    3.6770763030E+06  -89.3004563044E+03    5.2166182850E+09
                 NaN                 NaN                 NaN                 NaN
                 NaN                 NaN                 NaN                 NaN
                 NaN                 NaN                 NaN                 NaN
                 NaN                 NaN                 NaN                 NaN
                 NaN                 NaN                 NaN                 NaN
                 NaN                 NaN                 NaN                 NaN
                 NaN                 NaN                 NaN                 NaN
                 NaN                 NaN                 NaN                 NaN
                 NaN                 NaN                 NaN                 NaN
                 NaN                 NaN                 NaN                 NaN
                 NaN                 NaN                 NaN                 NaN
                 NaN                 NaN                 NaN                 NaN
                 NaN                 NaN                 NaN                 NaN
                 NaN                 NaN                 NaN                 NaN
                 NaN                 NaN                 NaN                 NaN
                 NaN                 NaN                 NaN                 NaN
                 NaN                 NaN                 NaN                 NaN
                 NaN                 NaN                 NaN                 NaN
                 NaN                 NaN                 NaN                 NaN
    0.0000000000E+00   22.6715956028E+06    4.4268962293E+06    0.0000000000E+00
   67.5309037473E+03   16.7079040214E+06    1.9326794314E+06   20.0048308482E+09
   62.3983109590E+03   11.4498034173E+06  597.8073452015E+03   18.1831972466E+09
   45.5370655553E+03    7.9038973225E+06  -21.5937850867E+03   13.0088018971E+09
   33.7014790626E+03    5.6305196044E+06 -349.2796144939E+03    9.2460689789E+09
                 NaN                 NaN                 NaN                 NaN
                 NaN                 NaN                 NaN                 NaN
                 NaN                 NaN                 NaN                 NaN
                 NaN                 NaN                 NaN                 NaN
                 NaN                 NaN                 NaN                 NaN
                 NaN                 NaN                 NaN                 NaN
                 NaN                 NaN                 NaN                 NaN
                 NaN                 NaN                 NaN                 NaN
                 NaN                 NaN                 NaN                 NaN
                 NaN                 NaN                 NaN                 NaN
                 NaN                 NaN                 NaN                 NaN
                 NaN                 NaN                 NaN                 NaN
                 NaN                 NaN                 NaN                 NaN
                 NaN                 NaN                 NaN                 NaN
                 NaN                 NaN                 NaN                 NaN
                 NaN                 NaN                 NaN                 NaN
                 NaN                 NaN                 NaN                 NaN
                 NaN                 NaN                 NaN                 NaN
                 NaN                 NaN                 NaN                 NaN
    0.0000000000E+00   34.2386229591E+06    4.7735593173E+06    0.0000000000E+00
  116.3649364704E+03   25.2721877215E+06    1.6969622089E+06   34.4704020272E+09
  105.6605024042E+03   17.3739183978E+06  202.9191948896E+03   30.9207870710E+09
   75.4469211085E+03   12.0011812735E+06 -416.8366730192E+03   21.7534411639E+09
   54.1043022707E+03    8.5419315073E+06 -713.1559815602E+03   15.1343127594E+09
   40.1466318848E+03    6.2749561244E+06 -825.4519566596E+03   10.5857309496E+09
   31.2561694708E+03    4.7372725052E+06 -823.9962186540E+03    7.3904096316E+09
                 NaN                 NaN                 NaN                 NaN
                 NaN                 NaN                 NaN                 NaN
                 NaN                 NaN                 NaN                 NaN
                 NaN                 NaN                 NaN                 NaN
                 NaN                 NaN                 NaN                 NaN
                 NaN                 NaN                 NaN                 NaN
                 NaN                 NaN                 NaN                 NaN
                 NaN                 NaN                 NaN                 NaN
                 NaN                 NaN                 NaN                 NaN
                 NaN                 NaN                 NaN                 NaN
                 NaN                 NaN                 NaN                 NaN
                 NaN                 NaN                 NaN                 NaN
                 NaN                 NaN                 NaN                 NaN
                 NaN                 NaN                 NaN                 NaN
                 NaN                 NaN                 NaN                 NaN
                 NaN                 NaN                 NaN                 NaN
                 NaN                 NaN                 NaN                 NaN
    0.0000000000E+00   51.5511673498E+06    3.7288647745E+06    0.0000000000E+00
  205.4568862582E+03   38.2183695683E+06    1.0327156705E+06   60.8591459013E+09
  183.0679616348E+03   26.4305722580E+06 -153.4018985642E+03   53.7408158417E+09
  128.4764231079E+03   18.3157796235E+06 -596.3163693825E+03   37.3011569642E+09
   89.9103658193E+03   13.0638889255E+06 -787.5419470083E+03   25.5268210335E+09
   64.8050548124E+03    9.6126615139E+06 -838.8398260289E+03   17.6290278116E+09
   49.3331819224E+03    7.3146617649E+06 -828.2633090538E+03   12.3719517663E+09
                 NaN                 NaN                 NaN                 NaN
                 NaN                 NaN                 NaN                 NaN
                 NaN                 NaN                 NaN                 NaN
                 NaN                 NaN                 NaN                 NaN
                 NaN                 NaN                 NaN                 NaN
                 NaN                 NaN                 NaN                 NaN
                 NaN                 NaN                 NaN                 NaN
                 NaN                 NaN                 NaN                 NaN
                 NaN                 NaN                 NaN                 NaN
                 NaN                 NaN                 NaN                 NaN
                 NaN                 NaN                 NaN                 NaN
                 NaN                 NaN                 NaN                 NaN
                 NaN                 NaN                 NaN                 NaN
                 NaN                 NaN                 NaN                 NaN
                 NaN                 NaN                 NaN                 NaN
                 NaN                 NaN                 NaN                 NaN
                 NaN                 NaN                 NaN                 NaN
    0.0000000000E+00   62.4745913692E+06    0.0000000000E+00    0.0000000000E+00
  256.9391021919E+03   46.3344285123E+06 -701.2934043140E+03   75.9135397966E+09
  224.7081643398E+03   32.0818495863E+06 -842.5656962171E+03   66.3968658982E+09
  153.7103165388E+03   22.2282667617E+06 -796.9688571531E+03   45.4461258554E+09
  103.2677038323E+03   15.8297935388E+06 -743.5382593191E+03   30.6304727061E+09
   71.3155023794E+03   11.7139357567E+06 -714.5878279453E+03   21.3691776583E+09
   49.5862102032E+03    8.8333128681E+06 -652.2038336412E+03   15.2337744769E+09
   34.8725922632E+03    6.7588279062E+06 -554.6302003123E+03   11.2149929019E+09
   28.5967225755E+03    5.5873311343E+06 -503.3921674938E+03    9.8352550280E+09
                 NaN                 NaN                 NaN                 NaN
                 NaN                 NaN                 NaN                 NaN
                 NaN                 NaN                 NaN                 NaN
                 NaN                 NaN                 NaN                 NaN
                 NaN                 NaN                 NaN                 NaN
                 NaN                 NaN                 NaN                 NaN
                 NaN                 NaN                 NaN                 NaN
                 NaN                 NaN                 NaN                 NaN
                 NaN                 NaN                 NaN                 NaN
                 NaN                 NaN                 NaN                 NaN
                 NaN                 NaN                 NaN                 NaN
                 NaN                 NaN                 NaN                 NaN
                 NaN                 NaN                 NaN                 NaN
   20.1093660578E+03   10.8064847486E+06 -117.7196219276E+03    6.0124265505E+09
   23.0448366635E+03    4.2204055896E+06 -134.9037782498E+03    1.0365196123E+09
    0.0000000000E+00   62.4744515088E+06   -2.4814939653E+06    0.0000000000E+00
  255.2228092379E+03   46.3981685739E+06   97.7472517061E+03   78.0092548493E+09
  225.5623890841E+03   32.1168872500E+06  974.5618118328E+03   68.2064291006E+09
  157.8840537769E+03   22.2666599649E+06    1.1852740383E+06   47.1721989987E+09
  110.2190103595E+03   15.8848897542E+06    1.2253666920E+06   32.1904957744E+09
   79.2546862072E+03   11.6873102416E+06    1.1741735492E+06   22.1607567859E+09
   60.2017637452E+03    8.8903750497E+06    1.0942153100E+06   15.4918980558E+09
                 NaN                 NaN                 NaN                 NaN
                 NaN                 NaN                 NaN                 NaN
                 NaN                 NaN                 NaN                 NaN
                 NaN                 NaN                 NaN                 NaN
                 NaN                 NaN                 NaN                 NaN
                 NaN                 NaN                 NaN                 NaN
                 NaN                 NaN                 NaN                 NaN
                 NaN                 NaN                 NaN                 NaN
                 NaN                 NaN                 NaN                 NaN
                 NaN                 NaN                 NaN                 NaN
                 NaN                 NaN                 NaN                 NaN
                 NaN                 NaN                 NaN                 NaN
                 NaN                 NaN                 NaN                 NaN
                 NaN                 NaN                 NaN                 NaN
                 NaN                 NaN                 NaN                 NaN
                 NaN                 NaN                 NaN                 NaN
    0.0000000000E+00    4.0973007439E+06    8.8149817454E+03    0.0000000000E+00
